
                                 *****************
                                 * O   R   C   A *
                                 *****************

                                            #,                                       
                                            ###                                      
                                            ####                                     
                                            #####                                    
                                            ######                                   
                                           ########,                                 
                                     ,,################,,,,,                         
                               ,,#################################,,                 
                          ,,##########################################,,             
                       ,#########################################, ''#####,          
                    ,#############################################,,   '####,        
                  ,##################################################,,,,####,       
                ,###########''''           ''''###############################       
              ,#####''   ,,,,##########,,,,          '''####'''          '####       
            ,##' ,,,,###########################,,,                        '##       
           ' ,,###''''                  '''############,,,                           
         ,,##''                                '''############,,,,        ,,,,,,###''
      ,#''                                            '''#######################'''  
     '                                                          ''''####''''         
             ,#######,   #######,   ,#######,      ##                                
            ,#'     '#,  ##    ##  ,#'     '#,    #''#        ,####,   ,####,        
            ##       ##  ##   ,#'  ##            #'  '#       #'       #'  '#        
            ##       ##  #######   ##           ,######,      #####,   #    #        
            '#,     ,#'  ##    ##  '#,     ,#' ,#      #,     #,   #   #,  ,#        
             '#######'   ##     ##  '#######'  #'      '#     '####' # '####'        



                #########################################################
                #                        -***-                          #
                #          Department of theory and spectroscopy        #
                #                                                       #
                #                      Frank Neese                      #
                #                                                       #
                #     Directorship, Architecture, Infrastructure        #
                #                    SHARK, DRIVERS                     #
                #        Core code/Algorithms in most modules           #
                #                                                       #
                #        Max Planck Institute fuer Kohlenforschung      #
                #                Kaiser Wilhelm Platz 1                 #
                #                 D-45470 Muelheim/Ruhr                 #
                #                      Germany                          #
                #                                                       #
                #                  All rights reserved                  #
                #                        -***-                          #
                #########################################################


                         Program Version 6.0.1  -  RELEASE   -


 With contributions from (in alphabetic order):
[Max-Planck-Institut fuer Kohlenforschung]                               
  Daniel Aravena         : Magnetic Suceptibility                        
  Michael Atanasov       : Ab Initio Ligand Field Theory (pilot matlab implementation)
  Alexander A. Auer      : GIAO ZORA, VPT2 properties, NMR spectrum      
  Ute Becker             : All parallelization in ORCA, NUMFREQ, NUMCALC 
  Giovanni Bistoni       : ED, misc. LED, open-shell LED, HFLD           
  Martin Brehm           : Molecular dynamics                            
  Dmytro Bykov           : pre 5.0 version of the SCF Hessian            
  Marcos Casanova-Páez   : Triplet and SCS-CIS(D). UHF-(DLPNO)-IP/EA/STEOM-CCSD. UHF-CVS-IP/STEOM-CCSD   
  Vijay G. Chilkuri      : MRCI spin determinant printing, contributions to CSF-ICE 
  Pauline Colinet        : FMM embedding                                 
  Dipayan Datta          : RHF DLPNO-CCSD density                        
  Achintya Kumar Dutta   : EOM-CC, STEOM-CC                              
  Nicolas Foglia         : Exact transition moments, OPA infrastructure, MCD improvements    
  Dmitry Ganyushin       : Spin-Orbit,Spin-Spin,Magnetic field MRCI      
  Miquel Garcia-Rates    : C-PCM and meta-GGA Hessian, CCSD/C-PCM, Gaussian charge scheme 
  Tiago L. C. Gouveia    : GS-ROHF, GS-ROCIS                             
  Yang Guo               : DLPNO-NEVPT2, F12-NEVPT2, CIM, IAO-localization        
  Andreas Hansen         : Spin unrestricted coupled pair/coupled cluster methods 
  Ingolf Harden          : AUTO-CI MPn and infrastructure                
  Benjamin Helmich-Paris : MC-RPA, TRAH-(SCF,CASSCF), AVAS, COSX integrals, SCF dyn. polar. 
  Lee Huntington         : MR-EOM, pCC                                   
  Robert Izsak           : Overlap fitted RIJCOSX, COSX-SCS-MP3, EOM     
  Riya Kayal             : Wick's Theorem for AUTO-CI, AUTO-CI UHF-CCSDT 
  Emily Kempfer          : AUTO-CI, RHF CISDT and CCSDT                  
  Christian Kollmar      : KDIIS, OOCD, Brueckner-CCSD(T), CCSD density, CASPT2, CASPT2-K, improved NEVPT2 
  Axel Koslowski         : Symmetry handling                             
  Simone Kossmann        : meta-GGA functionals, TD-DFT gradient, OOMP2, (MP2 Hessian; deprecated post 5.0) 
  Lucas Lang             : DCDCAS                                        
  Marvin Lechner         : AUTO-CI (C++ implementation), FIC-MRCC        
  Spencer Leger          : CASSCF response                               
  Dagmar Lenk            : GEPOL surface, SMD, ORCA-2-JSON               
  Dimitrios Liakos       : Extrapolation schemes; Compound Job, initial MDCI parallelization 
  Dimitrios Manganas     : Further ROCIS development; embedding schemes. LFT, Crystal Embedding 
  Dimitrios Pantazis     : SARC Basis sets                               
  Anastasios Papadopoulos: AUTO-CI, single reference methods and gradients 
  Taras Petrenko         : pre 6.0 DFT Hessian and TD-DFT gradient, (ASA, deprecated), ECA, 1-Electron XAS/XES, NRVS 
  Peter Pinski           : DLPNO-MP2, DLPNO-MP2 Gradient                 
  Christoph Reimann      : Effective Core Potentials                     
  Marius Retegan         : Local ZFS, SOC                                
  Christoph Riplinger    : Optimizer, TS searches, QM/MM, DLPNO-CCSD(T), (RO)-DLPNO pert. Triples 
  Michael Roemelt        : Original ROCIS implementation                 
  Masaaki Saitow         : Open-shell DLPNO-CCSD energy and density      
  Barbara Sandhoefer     : DKH picture change effects                    
  Kantharuban Sivalingam : CASSCF convergence/infrastructure, NEVPT2 and variants, FIC-MRCI 
  Bernardo de Souza      : ESD, SOC TD-DFT                               
  Georgi L. Stoychev     : AutoAux, RI-MP2 NMR, DLPNO-MP2 response, X2C  
  Van Anh Tran           : RI-MP2 g-tensors                              
  Willem Van den Heuvel  : Paramagnetic NMR                              
  Zikuan Wang            : NOTCH, Electric field optimization            
  Frank Wennmohs         : Technical directorship and infrastructure     
  Hang Xu                : AUTO-CI-Response properties                   
                                                                         
[FACCTs GmbH]                                                            
  Markus Bursch, Miquel Garcia-Rates, Christoph Riplinger, Bernardo de Souza, Georgi L. Stoychev 
                                                                 
  APM, Basis sets (HGBS, AHGBS, def-TZVP (Ac-Lr), def2-XVPD (La-Lu)), CI-OPT, improved COSX, DLPNO-Multilevel,           
  DOCKER, DRACO, updates on ESD, GOAT, IRC, LR-CPCM, MBIS, meta-GGA TD-DFT gradient, ML-optimized integration grids, 
  MM, NACMEs, nearIR, NEB, NEB-TS, NL-DFT gradient (VV10), 2- and 3-layer-ONIOM, interface openCOSMO-RS, QMMM,   
  Crystal-QMMM, SF, symmetry and pop. for TD-DFT, r2SCAN hybrids, SOLVATOR                                   
                                                                         
[Other institutions]                                                     
  V. Asgeirsson          : NEB                                           
  Christoph Bannwarth    : sTDA-DFT, sTD-DFT, PBEh-3c, B97-3c, D3        
  Sebastian Ehlert       : rSCAN, r2SCAN, r2SCAN-3c, D4, dhf basis sets  
  Marvin Friede          : D4 for Fr, Ra, Ac-Lr                          
  Lars Goerigk           : TD-DFT with DH, B97 family of functionals     
  Stefan Grimme          : VdW corrections, initial TS optimization, DFT functionals, gCP, sTDA/sTD-DF 
  Waldemar Hujo          : DFT-NL                                        
  H. Jonsson             : NEB                                           
  Holger Kruse           : gCP                                           
  Marcel Mueller         : wB97X-3c, vDZP basis set                      
  Hagen Neugebauer       : wr2SCAN                                       
  Tobias Risthaus        : range-separated hybrid DFT                    
  Lukas Wittmann         : regularized MP2, r2SCAN double-hybrids, wr2SCAN        
                                                                         
We gratefully acknowledge several colleagues who have allowed us to      
interface, adapt or use parts of their codes:                            
  Ed Valeev, F. Pavosevic, A. Kumar             : LibInt (2-el integral package), F12 methods 
  Garnet Chan, S. Sharma, J. Yang, R. Olivares  : DMRG                   
  Ulf Ekstrom                                   : XCFun DFT Library      
  Mihaly Kallay                                 : mrcc  (arbitrary order and MRCC methods)
  Frank Weinhold                                : gennbo (NPA and NBO analysis)           
  Simon Mueller                                 : openCOSMO-RS                            
  Christopher J. Cramer and Donald G. Truhlar   : smd solvation model                     
  S Lehtola, MJT Oliveira, MAL Marques          : LibXC Library                           
  Liviu Ungur et al                             : ANISO software                          


 Your calculation uses the libint2 library for the computation of 2-el integrals
 For citations please refer to: http://libint.valeyev.net

 Your ORCA version has been built with support for libXC version: 6.2.2
 For citations please refer to: https://libxc.gitlab.io

 This ORCA versions uses:
   CBLAS   interface :  Fast vector & matrix operations
   LAPACKE interface :  Fast linear algebra routines
   SCALAPACK package :  Parallel linear algebra routines
   Shared memory     :  Shared parallel matrices
   BLAS/LAPACK       :  OpenBLAS 0.3.27  USE64BITINT DYNAMIC_ARCH NO_AFFINITY SkylakeX SINGLE_THREADED
        Core in use  :  SkylakeX
   Copyright (c) 2011-2014, The OpenBLAS Project


NOTE: MaxCore=3000 MB was set to SCF,MP2,MDCI,CIPSI,MRCI and CIS
      => If you want to overwrite this, your respective input block should be placed after the MaxCore statement
NOTE: MaxCore=3000 MB was set to SCF,MP2,MDCI,CIPSI,MRCI and CIS
      => If you want to overwrite this, your respective input block should be placed after the MaxCore statement
================================================================================

----- Orbital basis set information -----
Your calculation utilizes the basis: def2-SVP
   F. Weigend and R. Ahlrichs, Phys. Chem. Chem. Phys. 7, 3297 (2005).



################################################################################


                                COMPOUND JOB MainJOB 
Basename: stilbene_TS_Compound_0

################################################################################

================================================================================
                                       INPUT FILE
================================================================================
NAME = stilbene_TS_Compound_0.inp
|  1> *xyz 0 1
|  2>  C        0.607197320      1.398243050      0.396447700
|  3>  C       -0.607196950      1.398242590     -0.396449170
|  4>  C       -1.809919390      0.825740375      0.002524460
|  5>  C       -2.965118484      0.892667929     -0.821105747
|  6>  C       -4.147219868      0.319190320     -0.425362280
|  7>  C       -4.239060706     -0.342659980      0.795940601
|  8>  C       -3.120740191     -0.423926035      1.621426924
|  9>  C       -1.930406325      0.143266322      1.243208193
| 10>  C        1.809919584      0.825740415     -0.002525418
| 11>  C        1.930406218      0.143264524     -1.243208151
| 12>  C        3.120739733     -0.423928566     -1.621426371
| 13>  C        4.239060463     -0.342661403     -0.795940344
| 14>  C        4.147219915      0.319191001      0.425361630
| 15>  C        2.965118757      0.892669392      0.821104567
| 16>  H        0.570401843      1.895580184      1.360293836
| 17>  H       -0.570401181      1.895578673     -1.360295873
| 18>  H       -2.896703340      1.405843789     -1.769755970
| 19>  H       -5.015853454      0.380519043     -1.065639763
| 20>  H       -5.172333419     -0.791257491      1.100592597
| 21>  H       -3.193402199     -0.939873394      2.568338257
| 22>  H       -1.059215294      0.077885689      1.878685176
| 23>  H        1.059215016      0.077882992     -1.878684946
| 24>  H        3.193401703     -0.939877431     -2.568336835
| 25>  H        5.172332976     -0.791259442     -1.100591706
| 26>  H        5.015853767      0.380520415      1.065638666
| 27>  H        2.896703983      1.405846642      1.769753860
| 28>  *
| 29>  
| 30>  %pal
| 31>    nproc 8
| 32>  end
| 33>  %maxcore 3000
| 34>  
| 35> 
| 36>                          ****END OF INPUT****
================================================================================
NOTE: MaxCore=3000 MB was set to SCF,MP2,MDCI,CIPSI,MRCI and CIS
      => If you want to overwrite this, your respective input block should be placed after the MaxCore statement
================================================================================

----- Orbital basis set information -----
Your calculation utilizes the basis: def2-SVP
   F. Weigend and R. Ahlrichs, Phys. Chem. Chem. Phys. 7, 3297 (2005).



################################################################################


                                COMPOUND JOB  1 
Basename: stilbene_TS_Compound_1
NOTE: please remember that MaxCore and PAL settings will be ignored.

################################################################################

================================================================================
                                       INPUT FILE
================================================================================
NAME = stilbene_TS_Compound_1.inp
|  1>     ! xTB Freq
|  2> 
|  3>                          ****END OF INPUT****
================================================================================
Your calculation utilizes the semiempirical GFN2-xTB method
Please cite in your paper:
C. Bannwarth, Ehlert S., S. Grimme,  J. Chem. Theory Comput., 15, (2019), 1652.
   

================================================================================

================================================================================
                                        WARNINGS
                       Please study these warnings very carefully!
================================================================================


WARNING: Analytical Hessian for XTB is limited in the analysis of the data.
       : If you want to obtain extensive IR and deltaG analysis, please use ! XTB NumFreq. 


WARNING: Found dipole moment calculation with XTB calculation
  ===> : Switching off dipole moment calculation


WARNING: Found frequency calculation in combination with XTB calculation
  ===> : Need to redirect dipole moment calculation to properties.out



                       ****************************
                       * Single Point Calculation *
                       ****************************

      -----------------------------------------------------------      
     |                   =====================                   |     
     |                           x T B                           |     
     |                   =====================                   |     
     |                         S. Grimme                         |     
     |          Mulliken Center for Theoretical Chemistry        |     
     |                    University of Bonn                     |     
      -----------------------------------------------------------      

   * xtb version 6.7.1 (edcfbbe) compiled by 'albert@albert-system' on 2024-07-22

   xtb is free software: you can redistribute it and/or modify it under
   the terms of the GNU Lesser General Public License as published by
   the Free Software Foundation, either version 3 of the License, or
   (at your option) any later version.
   
   xtb is distributed in the hope that it will be useful,
   but WITHOUT ANY WARRANTY; without even the implied warranty of
   MERCHANTABILITY or FITNESS FOR A PARTICULAR PURPOSE.  See the
   GNU Lesser General Public License for more details.
   
   Cite this work as:
   * C. Bannwarth, E. Caldeweyher, S. Ehlert, A. Hansen, P. Pracht,
     J. Seibert, S. Spicher, S. Grimme, WIREs Comput. Mol. Sci., 2020, 11,
     e01493. DOI: 10.1002/wcms.1493
   
   for GFN2-xTB:
   * C. Bannwarth, S. Ehlert and S. Grimme., J. Chem. Theory Comput., 2019,
     15, 1652-1671. DOI: 10.1021/acs.jctc.8b01176
   for GFN1-xTB:
   * S. Grimme, C. Bannwarth, P. Shushkov, J. Chem. Theory Comput., 2017,
     13, 1989-2009. DOI: 10.1021/acs.jctc.7b00118
   for GFN0-xTB:
   * P. Pracht, E. Caldeweyher, S. Ehlert, S. Grimme, ChemRxiv, 2019, preprint.
     DOI: 10.26434/chemrxiv.8326202.v1
   for GFN-FF:
   * S. Spicher and S. Grimme, Angew. Chem. Int. Ed., 2020, 59, 15665-15673.
     DOI: 10.1002/anie.202004239
   
   for ALPB and GBSA implicit solvation:
   * S. Ehlert, M. Stahn, S. Spicher, S. Grimme, J. Chem. Theory Comput.,
     2021, 17, 4250-4261. DOI: 10.1021/acs.jctc.1c00471
   
   for ddCOSMO and CPCM-X implicit solvation:
   * M. Stahn, S. Ehlert, S. Grimme, J. Phys. Chem. A,
     2023, XX, XXXX-XXXX. DOI: 10.1021/acs.jpca.3c04382
   
   for DFT-D4:
   * E. Caldeweyher, C. Bannwarth and S. Grimme, J. Chem. Phys., 2017,
     147, 034112. DOI: 10.1063/1.4993215
   * E. Caldeweyher, S. Ehlert, A. Hansen, H. Neugebauer, S. Spicher,
     C. Bannwarth and S. Grimme, J. Chem. Phys., 2019, 150, 154122.
     DOI: 10.1063/1.5090222
   * E. Caldeweyher, J.-M. Mewes, S. Ehlert and S. Grimme, Phys. Chem. Chem. Phys.
     2020, 22, 8499-8512. DOI: 10.1039/D0CP00502A
   
   for sTDA-xTB:
   * S. Grimme and C. Bannwarth, J. Chem. Phys., 2016, 145, 054103.
     DOI: 10.1063/1.4959605
   
   in the mass-spec context:
   * V. Asgeirsson, C. Bauer and S. Grimme, Chem. Sci., 2017, 8, 4879.
     DOI: 10.1039/c7sc00601b
   * J. Koopman and S. Grimme, ACS Omega 2019, 4, 12, 15120-15133.
     DOI: 10.1021/acsomega.9b02011
   
   for metadynamics refer to:
   * S. Grimme, J. Chem. Theory Comput., 2019, 155, 2847-2862
     DOI: 10.1021/acs.jctc.9b00143
   
   for SPH calculations refer to:
   * S. Spicher and S. Grimme, J. Chem. Theory Comput., 2021, 17, 1701-1714
     DOI: 10.1021/acs.jctc.0c01306
   
   for ONIOM refer to:
   * C. Plett, A. Katbashev, S. Ehlert, S. Grimme, M. Bursch,
     Phys. Chem. Chem. Phys., 2023, 25, 17860-17868. DOI: 10.1039/D3CP02178E
   
   for DIPRO refer to:
   * J. Kohn, N. Gildemeister, S. Grimme, D. Fazzi, A. Hansen,
     J. Chem. Phys., 2023, just accepted.
   
   for PTB refer to:
   * S. Grimme, M. Mueller, A. Hansen, J. Chem. Phys., 2023, 158, 124111.
     DOI: 10.1063/5.0137838
   
   with help from (in alphabetical order)
   P. Atkinson, C. Bannwarth, F. Bohle, G. Brandenburg, E. Caldeweyher
   M. Checinski, S. Dohm, S. Ehlert, S. Ehrlich, I. Gerasimov, C. Hölzer
   A. Katbashev, J. Kohn, J. Koopman, C. Lavigne, S. Lehtola, F. März, M. Müller,
   F. Musil, H. Neugebauer, J. Pisarek, C. Plett, P. Pracht, F. Pultar,
   J. Seibert, P. Shushkov, S. Spicher, M. Stahn, M. Steiner, T. Strunk,
   J. Stückrath, T. Rose, and J. Unsleber
   
 * started run on 2025/07/01 at 21:37:37.191     
   ID    Z sym.   atoms
    1    6 C      1-14
    2    1 H      15-26

           -------------------------------------------------
          |                Calculation Setup                |
           -------------------------------------------------

          program call               : /software/sse2/tetralith_el9/manual/ORCA/6.0.1/hpc1/otool_xtb stilbene_TS_Compound_1_XTB.xyz --grad -c 0 -u 0 -P 1 --namespace stilbene_TS_Compound_1 --input stilbene_TS_Compound_1_XTB.input.tmp --acc 1.000000
          hostname                   : n1984
          calculation namespace      : stilbene_TS_Compound_1
          coordinate file            : stilbene_TS_Compound_1_XTB.xyz
          omp threads                :                     1


           -------------------------------------------------
          |                 G F N 2 - x T B                 |
           -------------------------------------------------

        Reference                      10.1021/acs.jctc.8b01176
      * Hamiltonian:
        H0-scaling (s, p, d)           1.850000    2.230000    2.230000
        zeta-weighting                 0.500000
      * Dispersion:
        s8                             2.700000
        a1                             0.520000
        a2                             5.000000
        s9                             5.000000
      * Repulsion:
        kExp                           1.500000    1.000000
        rExp                           1.000000
      * Coulomb:
        alpha                          2.000000
        third order                    shell-resolved
        anisotropic                    true
        a3                             3.000000
        a5                             4.000000
        cn-shift                       1.200000
        cn-exp                         4.000000
        max-rad                        5.000000


          ...................................................
          :                      SETUP                      :
          :.................................................:
          :  # basis functions                  68          :
          :  # atomic orbitals                  68          :
          :  # shells                           40          :
          :  # electrons                        68          :
          :  max. iterations                   250          :
          :  Hamiltonian                  GFN2-xTB          :
          :  restarted?                      false          :
          :  GBSA solvation                  false          :
          :  PC potential                    false          :
          :  electronic temp.          300.0000000     K    :
          :  accuracy                    1.0000000          :
          :  -> integral cutoff          0.2500000E+02      :
          :  -> integral neglect         0.1000000E-07      :
          :  -> SCF convergence          0.1000000E-05 Eh   :
          :  -> wf. convergence          0.1000000E-03 e    :
          :  Broyden damping             0.4000000          :
          :  net charge                          0          :
          :  unpaired electrons                  0          :
          ...................................................

 iter      E             dE          RMSdq      gap      omega  full diag
   1    -36.6714127 -0.366714E+02  0.417E+00    1.04       0.0  T
   2    -36.6942456 -0.228329E-01  0.247E+00    1.02       1.0  T
   3    -36.6913248  0.292083E-02  0.585E-01    1.01       1.0  T
   4    -36.6935159 -0.219114E-02  0.298E-01    1.01       1.0  T
   5    -36.6963842 -0.286832E-02  0.563E-02    1.01       1.0  T
   6    -36.6964392 -0.549612E-04  0.265E-02    1.01       1.0  T
   7    -36.6964390  0.182799E-06  0.741E-03    1.01       2.6  T
   8    -36.6964405 -0.154174E-05  0.106E-03    1.01      18.4  T
   9    -36.6964405  0.248762E-07  0.119E-03    1.01      16.5  T
  10    -36.6964405 -0.288717E-07  0.512E-04    1.01      38.3  T
  11    -36.6964405 -0.427058E-08  0.957E-05    1.01     204.9  T

   *** convergence criteria satisfied after 11 iterations ***

         #    Occupation            Energy/Eh            Energy/eV
      -------------------------------------------------------------
         1        2.0000           -0.6420056             -17.4699
       ...           ...                  ...                  ...
        28        2.0000           -0.4196832             -11.4202
        29        2.0000           -0.4183216             -11.3831
        30        2.0000           -0.4120423             -11.2122
        31        2.0000           -0.4113325             -11.1929
        32        2.0000           -0.4036621             -10.9842
        33        2.0000           -0.4036515             -10.9839
        34        2.0000           -0.3366018              -9.1594 (HOMO)
        35                         -0.2994820              -8.1493 (LUMO)
        36                         -0.2174451              -5.9170
        37                         -0.2174228              -5.9164
        38                         -0.2012240              -5.4756
        39                         -0.1824659              -4.9651
       ...                                ...                  ...
        68                          0.6864492              18.6792
      -------------------------------------------------------------
                  HL-Gap            0.0371198 Eh            1.0101 eV
             Fermi-level           -0.3180419 Eh           -8.6544 eV

 SCC (total)                   0 d,  0 h,  0 min,  0.028 sec
 SCC setup                      ...        0 min,  0.000 sec (  1.789%)
 Dispersion                     ...        0 min,  0.000 sec (  1.191%)
 classical contributions        ...        0 min,  0.000 sec (  0.351%)
 integral evaluation            ...        0 min,  0.003 sec ( 12.232%)
 iterations                     ...        0 min,  0.014 sec ( 50.698%)
 molecular gradient             ...        0 min,  0.009 sec ( 32.905%)
 printout                       ...        0 min,  0.000 sec (  0.731%)

         :::::::::::::::::::::::::::::::::::::::::::::::::::::
         ::                     SUMMARY                     ::
         :::::::::::::::::::::::::::::::::::::::::::::::::::::
         :: total energy             -35.998041455379 Eh    ::
         :: gradient norm              0.087325199063 Eh/a0 ::
         :: HOMO-LUMO gap              1.010080785797 eV    ::
         ::.................................................::
         :: SCC energy               -36.696490801291 Eh    ::
         :: -> isotropic ES            0.001745923482 Eh    ::
         :: -> anisotropic ES          0.004805323397 Eh    ::
         :: -> anisotropic XC          0.026303731373 Eh    ::
         :: -> dispersion             -0.024450870839 Eh    ::
         :: repulsion energy           0.698449345911 Eh    ::
         :: add. restraining           0.000000000000 Eh    ::
         :: total charge               0.000000000000 e     ::
         :::::::::::::::::::::::::::::::::::::::::::::::::::::


Property printout bound to 'properties.out'

           -------------------------------------------------
          | TOTAL ENERGY              -35.998041455379 Eh   |
          | GRADIENT NORM               0.087325199063 Eh/α |
          | HOMO-LUMO GAP               1.010080785797 eV   |
           -------------------------------------------------

------------------------------------------------------------------------
 * finished run on 2025/07/01 at 21:37:37.233     
------------------------------------------------------------------------
 total:
 * wall-time:     0 d,  0 h,  0 min,  0.041 sec
 *  cpu-time:     0 d,  0 h,  0 min,  0.041 sec
 * ratio c/w:     0.985 speedup
 SCF:
 * wall-time:     0 d,  0 h,  0 min,  0.028 sec
 *  cpu-time:     0 d,  0 h,  0 min,  0.028 sec
 * ratio c/w:     0.984 speedup


-------------------------   --------------------
FINAL SINGLE POINT ENERGY       -35.998041455380
-------------------------   --------------------


-------------
DIPOLE MOMENT
-------------
                                X             Y             Z
Total Dipole Moment    :      0.00000       0.05600       0.00000
                        -----------------------------------------
Magnitude (a.u.)       :      0.05600
Magnitude (Debye)      :      0.14234

      -----------------------------------------------------------      
     |                   =====================                   |     
     |                           x T B                           |     
     |                   =====================                   |     
     |                         S. Grimme                         |     
     |          Mulliken Center for Theoretical Chemistry        |     
     |                    University of Bonn                     |     
      -----------------------------------------------------------      

   * xtb version 6.7.1 (edcfbbe) compiled by 'albert@albert-system' on 2024-07-22

   xtb is free software: you can redistribute it and/or modify it under
   the terms of the GNU Lesser General Public License as published by
   the Free Software Foundation, either version 3 of the License, or
   (at your option) any later version.
   
   xtb is distributed in the hope that it will be useful,
   but WITHOUT ANY WARRANTY; without even the implied warranty of
   MERCHANTABILITY or FITNESS FOR A PARTICULAR PURPOSE.  See the
   GNU Lesser General Public License for more details.
   
   Cite this work as:
   * C. Bannwarth, E. Caldeweyher, S. Ehlert, A. Hansen, P. Pracht,
     J. Seibert, S. Spicher, S. Grimme, WIREs Comput. Mol. Sci., 2020, 11,
     e01493. DOI: 10.1002/wcms.1493
   
   for GFN2-xTB:
   * C. Bannwarth, S. Ehlert and S. Grimme., J. Chem. Theory Comput., 2019,
     15, 1652-1671. DOI: 10.1021/acs.jctc.8b01176
   for GFN1-xTB:
   * S. Grimme, C. Bannwarth, P. Shushkov, J. Chem. Theory Comput., 2017,
     13, 1989-2009. DOI: 10.1021/acs.jctc.7b00118
   for GFN0-xTB:
   * P. Pracht, E. Caldeweyher, S. Ehlert, S. Grimme, ChemRxiv, 2019, preprint.
     DOI: 10.26434/chemrxiv.8326202.v1
   for GFN-FF:
   * S. Spicher and S. Grimme, Angew. Chem. Int. Ed., 2020, 59, 15665-15673.
     DOI: 10.1002/anie.202004239
   
   for ALPB and GBSA implicit solvation:
   * S. Ehlert, M. Stahn, S. Spicher, S. Grimme, J. Chem. Theory Comput.,
     2021, 17, 4250-4261. DOI: 10.1021/acs.jctc.1c00471
   
   for ddCOSMO and CPCM-X implicit solvation:
   * M. Stahn, S. Ehlert, S. Grimme, J. Phys. Chem. A,
     2023, XX, XXXX-XXXX. DOI: 10.1021/acs.jpca.3c04382
   
   for DFT-D4:
   * E. Caldeweyher, C. Bannwarth and S. Grimme, J. Chem. Phys., 2017,
     147, 034112. DOI: 10.1063/1.4993215
   * E. Caldeweyher, S. Ehlert, A. Hansen, H. Neugebauer, S. Spicher,
     C. Bannwarth and S. Grimme, J. Chem. Phys., 2019, 150, 154122.
     DOI: 10.1063/1.5090222
   * E. Caldeweyher, J.-M. Mewes, S. Ehlert and S. Grimme, Phys. Chem. Chem. Phys.
     2020, 22, 8499-8512. DOI: 10.1039/D0CP00502A
   
   for sTDA-xTB:
   * S. Grimme and C. Bannwarth, J. Chem. Phys., 2016, 145, 054103.
     DOI: 10.1063/1.4959605
   
   in the mass-spec context:
   * V. Asgeirsson, C. Bauer and S. Grimme, Chem. Sci., 2017, 8, 4879.
     DOI: 10.1039/c7sc00601b
   * J. Koopman and S. Grimme, ACS Omega 2019, 4, 12, 15120-15133.
     DOI: 10.1021/acsomega.9b02011
   
   for metadynamics refer to:
   * S. Grimme, J. Chem. Theory Comput., 2019, 155, 2847-2862
     DOI: 10.1021/acs.jctc.9b00143
   
   for SPH calculations refer to:
   * S. Spicher and S. Grimme, J. Chem. Theory Comput., 2021, 17, 1701-1714
     DOI: 10.1021/acs.jctc.0c01306
   
   for ONIOM refer to:
   * C. Plett, A. Katbashev, S. Ehlert, S. Grimme, M. Bursch,
     Phys. Chem. Chem. Phys., 2023, 25, 17860-17868. DOI: 10.1039/D3CP02178E
   
   for DIPRO refer to:
   * J. Kohn, N. Gildemeister, S. Grimme, D. Fazzi, A. Hansen,
     J. Chem. Phys., 2023, just accepted.
   
   for PTB refer to:
   * S. Grimme, M. Mueller, A. Hansen, J. Chem. Phys., 2023, 158, 124111.
     DOI: 10.1063/5.0137838
   
   with help from (in alphabetical order)
   P. Atkinson, C. Bannwarth, F. Bohle, G. Brandenburg, E. Caldeweyher
   M. Checinski, S. Dohm, S. Ehlert, S. Ehrlich, I. Gerasimov, C. Hölzer
   A. Katbashev, J. Kohn, J. Koopman, C. Lavigne, S. Lehtola, F. März, M. Müller,
   F. Musil, H. Neugebauer, J. Pisarek, C. Plett, P. Pracht, F. Pultar,
   J. Seibert, P. Shushkov, S. Spicher, M. Stahn, M. Steiner, T. Strunk,
   J. Stückrath, T. Rose, and J. Unsleber
   
 * started run on 2025/07/01 at 21:37:37.292     
   ID    Z sym.   atoms
    1    6 C      1-14
    2    1 H      15-26

           -------------------------------------------------
          |                Calculation Setup                |
           -------------------------------------------------

          program call               : /software/sse2/tetralith_el9/manual/ORCA/6.0.1/hpc1/otool_xtb stilbene_TS_Compound_1_XTB.xyz --hess -c 0 -u 0 -P 1 --namespace stilbene_TS_Compound_1 --input stilbene_TS_Compound_1_XTB.input.tmp --acc 1.000000
          hostname                   : n1984
          calculation namespace      : stilbene_TS_Compound_1
          coordinate file            : stilbene_TS_Compound_1_XTB.xyz
          omp threads                :                     1


           -------------------------------------------------
          |                 G F N 2 - x T B                 |
           -------------------------------------------------

        Reference                      10.1021/acs.jctc.8b01176
      * Hamiltonian:
        H0-scaling (s, p, d)           1.850000    2.230000    2.230000
        zeta-weighting                 0.500000
      * Dispersion:
        s8                             2.700000
        a1                             0.520000
        a2                             5.000000
        s9                             5.000000
      * Repulsion:
        kExp                           1.500000    1.000000
        rExp                           1.000000
      * Coulomb:
        alpha                          2.000000
        third order                    shell-resolved
        anisotropic                    true
        a3                             3.000000
        a5                             4.000000
        cn-shift                       1.200000
        cn-exp                         4.000000
        max-rad                        5.000000

q/qsh data taken from xtbrestart
CAMM data taken from xtbrestart

          ...................................................
          :                      SETUP                      :
          :.................................................:
          :  # basis functions                  68          :
          :  # atomic orbitals                  68          :
          :  # shells                           40          :
          :  # electrons                        68          :
          :  max. iterations                   250          :
          :  Hamiltonian                  GFN2-xTB          :
          :  restarted?                       true          :
          :  GBSA solvation                  false          :
          :  PC potential                    false          :
          :  electronic temp.          300.0000000     K    :
          :  accuracy                    1.0000000          :
          :  -> integral cutoff          0.2500000E+02      :
          :  -> integral neglect         0.1000000E-07      :
          :  -> SCF convergence          0.1000000E-05 Eh   :
          :  -> wf. convergence          0.1000000E-03 e    :
          :  Broyden damping             0.4000000          :
          :  net charge                          0          :
          :  unpaired electrons                  0          :
          ...................................................

 iter      E             dE          RMSdq      gap      omega  full diag
   1    -36.6964405 -0.366964E+02  0.346E-05    1.01       0.0  T
   2    -36.6964405 -0.255795E-11  0.208E-05    1.01     944.4  T
   3    -36.6964405  0.504485E-12  0.134E-05    1.01    1467.5  T

   *** convergence criteria satisfied after 3 iterations ***

         #    Occupation            Energy/Eh            Energy/eV
      -------------------------------------------------------------
         1        2.0000           -0.6420058             -17.4699
       ...           ...                  ...                  ...
        28        2.0000           -0.4196832             -11.4202
        29        2.0000           -0.4183220             -11.3831
        30        2.0000           -0.4120428             -11.2123
        31        2.0000           -0.4113327             -11.1929
        32        2.0000           -0.4036617             -10.9842
        33        2.0000           -0.4036512             -10.9839
        34        2.0000           -0.3366023              -9.1594 (HOMO)
        35                         -0.2994825              -8.1493 (LUMO)
        36                         -0.2174447              -5.9170
        37                         -0.2174224              -5.9164
        38                         -0.2012246              -5.4756
        39                         -0.1824665              -4.9652
       ...                                ...                  ...
        68                          0.6864490              18.6792
      -------------------------------------------------------------
                  HL-Gap            0.0371198 Eh            1.0101 eV
             Fermi-level           -0.3180424 Eh           -8.6544 eV

 SCC (total)                   0 d,  0 h,  0 min,  0.019 sec
 SCC setup                      ...        0 min,  0.000 sec (  1.429%)
 Dispersion                     ...        0 min,  0.000 sec (  1.464%)
 classical contributions        ...        0 min,  0.000 sec (  0.263%)
 integral evaluation            ...        0 min,  0.003 sec ( 16.605%)
 iterations                     ...        0 min,  0.007 sec ( 33.792%)
 molecular gradient             ...        0 min,  0.009 sec ( 45.499%)
 printout                       ...        0 min,  0.000 sec (  0.831%)

         :::::::::::::::::::::::::::::::::::::::::::::::::::::
         ::                     SUMMARY                     ::
         :::::::::::::::::::::::::::::::::::::::::::::::::::::
         :: total energy             -35.998041455566 Eh    ::
         :: gradient norm              0.087325214798 Eh/a0 ::
         :: HOMO-LUMO gap              1.010081070008 eV    ::
         ::.................................................::
         :: SCC energy               -36.696490801477 Eh    ::
         :: -> isotropic ES            0.001745791958 Eh    ::
         :: -> anisotropic ES          0.004805413688 Eh    ::
         :: -> anisotropic XC          0.026303716283 Eh    ::
         :: -> dispersion             -0.024450875142 Eh    ::
         :: repulsion energy           0.698449345911 Eh    ::
         :: add. restraining           0.000000000000 Eh    ::
         :: total charge               0.000000000000 e     ::
         :::::::::::::::::::::::::::::::::::::::::::::::::::::

           ------------------------------------------------- 
          |                Numerical Hessian                |
           ------------------------------------------------- 
step length          :   0.00500
SCC accuracy         :   0.30000
Hessian scale factor :   1.00000
frozen atoms in %    :   0.00000    0
RMS gradient         :   0.08733 !! INCOMPLETELY OPTIMIZED GEOMETRY !!
estimated CPU  time      0.04 min
estimated wall time      0.04 min

writing file <hessian>.

 projected vibrational frequencies (cm⁻¹)
eigval :       -0.00    -0.00     0.00     0.00     0.00     0.00
eigval :        9.10    63.27    75.22   143.26   145.14   271.02
eigval :      295.89   303.11   366.66   375.74   431.74   445.60
eigval :      458.91   510.12   582.14   584.66   586.40   647.83
eigval :      650.52   718.14   720.49   756.12   775.78   850.20
eigval :      852.71   858.13   859.92   880.34   882.17   923.21
eigval :      923.31   925.02   925.07   969.76   970.10  1072.06
eigval :     1072.21  1112.84  1114.24  1163.83  1171.28  1178.60
eigval :     1179.68  1190.64  1197.56  1224.78  1285.16  1289.40
eigval :     1316.09  1317.44  1365.88  1406.26  1436.69  1440.30
eigval :     1479.07  1486.65  1529.80  1529.95  1586.68  1587.73
eigval :     3002.83  3006.38  3066.76  3066.80  3069.66  3069.88
eigval :     3078.37  3078.44  3083.50  3083.91  3094.13  3094.16

Property printout bound to 'properties.out'
Molecule has the following symmetry elements: (C2) 
It seems to be the C2 point group

           -------------------------------------------------
          | TOTAL ENERGY              -35.998041455555 Eh   |
          | TOTAL ENTHALPY            -35.779663395431 Eh   |
          | TOTAL FREE ENERGY         -35.830003353687 Eh   |
          | GRADIENT NORM               0.087325217657 Eh/α |
          | HOMO-LUMO GAP               1.010081160603 eV   |
           -------------------------------------------------
########################################################################
[WARNING] Runtime exception occurred
-1- hessian_numhess: Hessian on incompletely optimized geometry!
########################################################################

------------------------------------------------------------------------
 * finished run on 2025/07/01 at 21:37:39.972     
------------------------------------------------------------------------
 total:
 * wall-time:     0 d,  0 h,  0 min,  2.679 sec
 *  cpu-time:     0 d,  0 h,  0 min,  2.669 sec
 * ratio c/w:     0.996 speedup
 SCF:
 * wall-time:     0 d,  0 h,  0 min,  0.020 sec
 *  cpu-time:     0 d,  0 h,  0 min,  0.019 sec
 * ratio c/w:     0.982 speedup
 analytical hessian:
 * wall-time:     0 d,  0 h,  0 min,  2.643 sec
 *  cpu-time:     0 d,  0 h,  0 min,  2.634 sec
 * ratio c/w:     0.997 speedup


-------------------------   --------------------
FINAL SINGLE POINT ENERGY       -35.998041455380
-------------------------   --------------------


-------------
DIPOLE MOMENT
-------------
                                X             Y             Z
Total Dipole Moment    :      0.00000       0.05600      -0.00000
                        -----------------------------------------
Magnitude (a.u.)       :      0.05600
Magnitude (Debye)      :      0.14234


-----------------------
VIBRATIONAL FREQUENCIES
-----------------------

Scaling factor for frequencies =  1.000000000  (already applied!)

     0:       0.00 cm**-1
     1:       0.00 cm**-1
     2:       0.00 cm**-1
     3:       0.00 cm**-1
     4:       0.00 cm**-1
     5:       0.00 cm**-1
     6:       9.10 cm**-1
     7:      63.27 cm**-1
     8:      75.22 cm**-1
     9:     143.25 cm**-1
    10:     145.14 cm**-1
    11:     271.01 cm**-1
    12:     295.88 cm**-1
    13:     303.10 cm**-1
    14:     366.65 cm**-1
    15:     375.73 cm**-1
    16:     431.72 cm**-1
    17:     445.59 cm**-1
    18:     458.90 cm**-1
    19:     510.11 cm**-1
    20:     582.12 cm**-1
    21:     584.64 cm**-1
    22:     586.38 cm**-1
    23:     647.81 cm**-1
    24:     650.49 cm**-1
    25:     718.11 cm**-1
    26:     720.46 cm**-1
    27:     756.09 cm**-1
    28:     775.75 cm**-1
    29:     850.17 cm**-1
    30:     852.68 cm**-1
    31:     858.09 cm**-1
    32:     859.89 cm**-1
    33:     880.30 cm**-1
    34:     882.13 cm**-1
    35:     923.17 cm**-1
    36:     923.27 cm**-1
    37:     924.98 cm**-1
    38:     925.03 cm**-1
    39:     969.73 cm**-1
    40:     970.07 cm**-1
    41:    1072.02 cm**-1
    42:    1072.17 cm**-1
    43:    1112.79 cm**-1
    44:    1114.20 cm**-1
    45:    1163.78 cm**-1
    46:    1171.23 cm**-1
    47:    1178.54 cm**-1
    48:    1179.62 cm**-1
    49:    1190.58 cm**-1
    50:    1197.51 cm**-1
    51:    1224.73 cm**-1
    52:    1285.11 cm**-1
    53:    1289.35 cm**-1
    54:    1316.05 cm**-1
    55:    1317.39 cm**-1
    56:    1365.83 cm**-1
    57:    1406.21 cm**-1
    58:    1436.64 cm**-1
    59:    1440.25 cm**-1
    60:    1479.03 cm**-1
    61:    1486.60 cm**-1
    62:    1529.75 cm**-1
    63:    1529.90 cm**-1
    64:    1586.63 cm**-1
    65:    1587.69 cm**-1
    66:    3002.69 cm**-1
    67:    3006.24 cm**-1
    68:    3066.61 cm**-1
    69:    3066.66 cm**-1
    70:    3069.52 cm**-1
    71:    3069.74 cm**-1
    72:    3078.22 cm**-1
    73:    3078.29 cm**-1
    74:    3083.36 cm**-1
    75:    3083.77 cm**-1
    76:    3093.99 cm**-1
    77:    3094.01 cm**-1


------------
NORMAL MODES
------------

These modes are the Cartesian displacements weighted by the diagonal matrix
M(i,i)=1/sqrt(m[i]) where m[i] is the mass of the displaced atom
Thus, these vectors are normalized but *not* orthogonal

                  0          1          2          3          4          5    
      0       0.000000   0.000000   0.000000   0.000000   0.000000   0.000000
      1       0.000000   0.000000   0.000000   0.000000   0.000000   0.000000
      2       0.000000   0.000000   0.000000   0.000000   0.000000   0.000000
      3       0.000000   0.000000   0.000000   0.000000   0.000000   0.000000
      4       0.000000   0.000000   0.000000   0.000000   0.000000   0.000000
      5       0.000000   0.000000   0.000000   0.000000   0.000000   0.000000
      6       0.000000   0.000000   0.000000   0.000000   0.000000   0.000000
      7       0.000000   0.000000   0.000000   0.000000   0.000000   0.000000
      8       0.000000   0.000000   0.000000   0.000000   0.000000   0.000000
      9       0.000000   0.000000   0.000000   0.000000   0.000000   0.000000
     10       0.000000   0.000000   0.000000   0.000000   0.000000   0.000000
     11       0.000000   0.000000   0.000000   0.000000   0.000000   0.000000
     12       0.000000   0.000000   0.000000   0.000000   0.000000   0.000000
     13       0.000000   0.000000   0.000000   0.000000   0.000000   0.000000
     14       0.000000   0.000000   0.000000   0.000000   0.000000   0.000000
     15       0.000000   0.000000   0.000000   0.000000   0.000000   0.000000
     16       0.000000   0.000000   0.000000   0.000000   0.000000   0.000000
     17       0.000000   0.000000   0.000000   0.000000   0.000000   0.000000
     18       0.000000   0.000000   0.000000   0.000000   0.000000   0.000000
     19       0.000000   0.000000   0.000000   0.000000   0.000000   0.000000
     20       0.000000   0.000000   0.000000   0.000000   0.000000   0.000000
     21       0.000000   0.000000   0.000000   0.000000   0.000000   0.000000
     22       0.000000   0.000000   0.000000   0.000000   0.000000   0.000000
     23       0.000000   0.000000   0.000000   0.000000   0.000000   0.000000
     24       0.000000   0.000000   0.000000   0.000000   0.000000   0.000000
     25       0.000000   0.000000   0.000000   0.000000   0.000000   0.000000
     26       0.000000   0.000000   0.000000   0.000000   0.000000   0.000000
     27       0.000000   0.000000   0.000000   0.000000   0.000000   0.000000
     28       0.000000   0.000000   0.000000   0.000000   0.000000   0.000000
     29       0.000000   0.000000   0.000000   0.000000   0.000000   0.000000
     30       0.000000   0.000000   0.000000   0.000000   0.000000   0.000000
     31       0.000000   0.000000   0.000000   0.000000   0.000000   0.000000
     32       0.000000   0.000000   0.000000   0.000000   0.000000   0.000000
     33       0.000000   0.000000   0.000000   0.000000   0.000000   0.000000
     34       0.000000   0.000000   0.000000   0.000000   0.000000   0.000000
     35       0.000000   0.000000   0.000000   0.000000   0.000000   0.000000
     36       0.000000   0.000000   0.000000   0.000000   0.000000   0.000000
     37       0.000000   0.000000   0.000000   0.000000   0.000000   0.000000
     38       0.000000   0.000000   0.000000   0.000000   0.000000   0.000000
     39       0.000000   0.000000   0.000000   0.000000   0.000000   0.000000
     40       0.000000   0.000000   0.000000   0.000000   0.000000   0.000000
     41       0.000000   0.000000   0.000000   0.000000   0.000000   0.000000
     42       0.000000   0.000000   0.000000   0.000000   0.000000   0.000000
     43       0.000000   0.000000   0.000000   0.000000   0.000000   0.000000
     44       0.000000   0.000000   0.000000   0.000000   0.000000   0.000000
     45       0.000000   0.000000   0.000000   0.000000   0.000000   0.000000
     46       0.000000   0.000000   0.000000   0.000000   0.000000   0.000000
     47       0.000000   0.000000   0.000000   0.000000   0.000000   0.000000
     48       0.000000   0.000000   0.000000   0.000000   0.000000   0.000000
     49       0.000000   0.000000   0.000000   0.000000   0.000000   0.000000
     50       0.000000   0.000000   0.000000   0.000000   0.000000   0.000000
     51       0.000000   0.000000   0.000000   0.000000   0.000000   0.000000
     52       0.000000   0.000000   0.000000   0.000000   0.000000   0.000000
     53       0.000000   0.000000   0.000000   0.000000   0.000000   0.000000
     54       0.000000   0.000000   0.000000   0.000000   0.000000   0.000000
     55       0.000000   0.000000   0.000000   0.000000   0.000000   0.000000
     56       0.000000   0.000000   0.000000   0.000000   0.000000   0.000000
     57       0.000000   0.000000   0.000000   0.000000   0.000000   0.000000
     58       0.000000   0.000000   0.000000   0.000000   0.000000   0.000000
     59       0.000000   0.000000   0.000000   0.000000   0.000000   0.000000
     60       0.000000   0.000000   0.000000   0.000000   0.000000   0.000000
     61       0.000000   0.000000   0.000000   0.000000   0.000000   0.000000
     62       0.000000   0.000000   0.000000   0.000000   0.000000   0.000000
     63       0.000000   0.000000   0.000000   0.000000   0.000000   0.000000
     64       0.000000   0.000000   0.000000   0.000000   0.000000   0.000000
     65       0.000000   0.000000   0.000000   0.000000   0.000000   0.000000
     66       0.000000   0.000000   0.000000   0.000000   0.000000   0.000000
     67       0.000000   0.000000   0.000000   0.000000   0.000000   0.000000
     68       0.000000   0.000000   0.000000   0.000000   0.000000   0.000000
     69       0.000000   0.000000   0.000000   0.000000   0.000000   0.000000
     70       0.000000   0.000000   0.000000   0.000000   0.000000   0.000000
     71       0.000000   0.000000   0.000000   0.000000   0.000000   0.000000
     72       0.000000   0.000000   0.000000   0.000000   0.000000   0.000000
     73       0.000000   0.000000   0.000000   0.000000   0.000000   0.000000
     74       0.000000   0.000000   0.000000   0.000000   0.000000   0.000000
     75       0.000000   0.000000   0.000000   0.000000   0.000000   0.000000
     76       0.000000   0.000000   0.000000   0.000000   0.000000   0.000000
     77       0.000000   0.000000   0.000000   0.000000   0.000000   0.000000
                  6          7          8          9         10         11    
      0      -0.015312  -0.044148  -0.002286  -0.016464  -0.024403   0.049460
      1      -0.205513   0.005008  -0.026419  -0.039959   0.018706   0.134081
      2       0.002134  -0.152906   0.010337  -0.060935   0.066585  -0.075858
      3       0.015311  -0.044148   0.002285  -0.016446   0.024419  -0.049454
      4      -0.205513  -0.005009  -0.026416   0.039978   0.018676   0.134090
      5      -0.002131  -0.152905  -0.010355  -0.060984  -0.066540   0.075858
      6      -0.041022  -0.019444  -0.001555  -0.053880   0.065305   0.078989
      7      -0.093725  -0.008781  -0.021941   0.181067  -0.079387  -0.043946
      8       0.014001  -0.080673  -0.027711   0.027420  -0.145250   0.143192
      9      -0.019974  -0.102541  -0.045871  -0.072392   0.042242   0.158330
     10      -0.042967   0.049907   0.127197   0.146310  -0.119345  -0.065804
     11      -0.004716   0.040149   0.043487   0.052788  -0.121245   0.034518
     12      -0.079322  -0.077982  -0.059184   0.002798   0.032734   0.094389
     13       0.088512   0.072325   0.167214  -0.045475  -0.007630   0.043477
     14       0.013486   0.147998   0.058650   0.003965   0.007643  -0.046884
     15      -0.150775   0.031440  -0.022012   0.082976   0.049249  -0.020164
     16       0.160172   0.024872   0.035423  -0.154841   0.146710   0.104244
     17       0.045671   0.130823  -0.008719  -0.049962   0.094956  -0.022010
     18      -0.167293   0.118987   0.026710   0.061850   0.105682  -0.044147
     19       0.103230  -0.049889  -0.132960   0.014217   0.085705  -0.057228
     20       0.060404   0.004144  -0.091352  -0.004499   0.014693   0.000413
     21      -0.112133   0.093865   0.035762  -0.013496   0.126053   0.027815
     22      -0.020017  -0.069099  -0.155377   0.195236  -0.063647  -0.124295
     23       0.043450  -0.102508  -0.097067   0.038798  -0.124588   0.103294
     24       0.041021  -0.019443   0.001552  -0.053933  -0.065262  -0.078987
     25      -0.093727   0.008782  -0.021953  -0.181125  -0.079246  -0.043949
     26      -0.013998  -0.080675   0.027707   0.027528   0.145228  -0.143193
     27       0.112131   0.093871  -0.035758  -0.013593  -0.126043  -0.027815
     28      -0.020020   0.069110  -0.155383  -0.195273  -0.063493  -0.124291
     29      -0.043448  -0.102517   0.097063   0.038886   0.124557  -0.103297
     30       0.167293   0.118992  -0.026700   0.061770  -0.105731   0.044145
     31       0.103228   0.049900  -0.132956  -0.014143   0.085716  -0.057231
     32      -0.060405   0.004135   0.091354  -0.004515  -0.014690  -0.000412
     33       0.150777   0.031440   0.022017   0.082936  -0.049315   0.020160
     34       0.160173  -0.024873   0.035432   0.154949   0.146589   0.104243
     35      -0.045675   0.130822   0.008727  -0.050034  -0.094916   0.022013
     36       0.079324  -0.077987   0.059179   0.002767  -0.032737  -0.094388
     37       0.088513  -0.072336   0.167212   0.045455  -0.007665   0.043482
     38      -0.013489   0.148003  -0.058640   0.003964  -0.007645   0.046884
     39       0.019974  -0.102544   0.045860  -0.072431  -0.042187  -0.158331
     40      -0.042967  -0.049916   0.127184  -0.146409  -0.119230  -0.065802
     41       0.004716   0.040153  -0.043481   0.052883   0.121205  -0.034518
     42      -0.040543  -0.087222  -0.014098  -0.017664  -0.090276   0.193035
     43      -0.264918  -0.018617   0.013526   0.014444   0.105091   0.179661
     44       0.030185  -0.140904  -0.009651  -0.084493   0.020329  -0.091493
     45       0.040539  -0.087222   0.014090  -0.017600   0.090293  -0.193032
     46      -0.264917   0.018614   0.013533  -0.014362   0.105107   0.179690
     47      -0.030182  -0.140905   0.009637  -0.084508  -0.020262   0.091504
     48       0.036712  -0.190859  -0.072117  -0.130549   0.023840   0.281801
     49      -0.101795   0.089334   0.230065   0.205713  -0.199577  -0.104090
     50      -0.032768   0.055303   0.097351   0.080817  -0.165295   0.023005
     51      -0.065646  -0.145938  -0.098046   0.001824  -0.002185   0.141941
     52       0.132653   0.125495   0.297273  -0.125058  -0.020435   0.089257
     53      -0.000680   0.245105   0.123939  -0.002544   0.053477  -0.105986
     54      -0.194722   0.049613  -0.031245   0.155971   0.020178  -0.085713
     55       0.261449   0.042247   0.061626  -0.352599   0.286613   0.231180
     56       0.060533   0.212151   0.001617  -0.117546   0.211889  -0.035804
     57      -0.222049   0.209656   0.056339   0.111985   0.128421  -0.140020
     58       0.157571  -0.095158  -0.242789  -0.020925   0.155662  -0.099307
     59       0.085778  -0.013639  -0.148834  -0.019949   0.054366  -0.029372
     60      -0.127782   0.162625   0.074484  -0.016972   0.177549  -0.012768
     61      -0.062096  -0.133033  -0.277828   0.284477  -0.103688  -0.183945
     62       0.060132  -0.203349  -0.162072   0.052548  -0.200245   0.152455
     63       0.127779   0.162634  -0.074475  -0.017105  -0.177537   0.012768
     64      -0.062103   0.133054  -0.277838  -0.284545  -0.103463  -0.183938
     65      -0.060128  -0.203363   0.162062   0.052690   0.200205  -0.152459
     66       0.222049   0.209664  -0.056319   0.111892  -0.128506   0.140019
     67       0.157569   0.095177  -0.242778   0.021060   0.155645  -0.099313
     68      -0.085779  -0.013653   0.148833  -0.020001  -0.054350   0.029374
     69       0.194726   0.049613   0.031257   0.155956  -0.020299   0.085710
     70       0.261453  -0.042250   0.061647   0.352812   0.286337   0.231176
     71      -0.060539   0.212150  -0.001608  -0.117707  -0.211797   0.035808
     72       0.065650  -0.145946   0.098039   0.001817   0.002184  -0.141937
     73       0.132656  -0.125515   0.297270   0.125017  -0.020533   0.089265
     74       0.000675   0.245115  -0.123923  -0.002574  -0.053474   0.105983
     75      -0.036712  -0.190866   0.072094  -0.130576  -0.023743  -0.281806
     76      -0.101795  -0.089351   0.230048  -0.205878  -0.199414  -0.104086
     77       0.032769   0.055312  -0.097344   0.080948   0.165233  -0.023004
                 12         13         14         15         16         17    
      0      -0.050306  -0.091567  -0.008303   0.010248   0.078618   0.003709
      1      -0.177270  -0.218261   0.004485   0.072445   0.075265   0.043081
      2       0.076504   0.043929   0.002128  -0.073151   0.194895  -0.029423
      3      -0.050307   0.091555   0.008284   0.010250   0.078617   0.003709
      4       0.177277  -0.218249   0.004489  -0.072448  -0.075264  -0.043081
      5       0.076504  -0.043919  -0.002115  -0.073151   0.194895  -0.029423
      6      -0.023556   0.062077  -0.005960   0.028203  -0.041140  -0.048753
      7       0.047150  -0.041578   0.012370  -0.049850   0.008629   0.167570
      8      -0.027664   0.042331  -0.010271   0.015598  -0.082637   0.097646
      9      -0.023490   0.128637   0.033163  -0.020702  -0.069321   0.003809
     10       0.005151   0.088281  -0.133207   0.130993   0.036366   0.008222
     11      -0.028263   0.017175  -0.076822   0.102128  -0.062752   0.013020
     12       0.018265   0.124927  -0.039780   0.034779  -0.025582   0.032706
     13      -0.090678   0.094358   0.112845  -0.085090  -0.030569  -0.091821
     14      -0.030749  -0.024276   0.069486  -0.056808   0.007301  -0.053101
     15       0.015457   0.154445  -0.000353  -0.008226   0.015774  -0.040175
     16       0.034800   0.002849   0.003300  -0.026697  -0.014216   0.122020
     17       0.035924  -0.074460   0.013526  -0.030099   0.025830   0.056830
     18       0.026550   0.084482   0.046640  -0.066296   0.024664   0.018288
     19       0.065209   0.032696  -0.125958   0.120698   0.031017  -0.071614
     20       0.024315   0.022923  -0.066921   0.066495   0.013624  -0.040997
     21       0.035625   0.085828  -0.040554   0.031070  -0.010143   0.011523
     22      -0.029196   0.048635   0.134356  -0.131221   0.007315  -0.027581
     23      -0.065918   0.078955   0.048872  -0.023403  -0.090676  -0.002937
     24      -0.023552  -0.062082   0.005947   0.028203  -0.041142  -0.048756
     25      -0.047146  -0.041579   0.012372   0.049852  -0.008632  -0.167569
     26      -0.027660  -0.042333   0.010271   0.015599  -0.082637   0.097647
     27       0.035629  -0.085824   0.040557   0.031074  -0.010143   0.011524
     28       0.029194   0.048637   0.134346   0.131231  -0.007318   0.027582
     29      -0.065911  -0.078960  -0.048869  -0.023407  -0.090675  -0.002937
     30       0.026553  -0.084477  -0.046630  -0.066301   0.024664   0.018289
     31      -0.065207   0.032692  -0.125952  -0.120706  -0.031016   0.071613
     32       0.024315  -0.022921   0.066920   0.066499   0.013623  -0.040999
     33       0.015463  -0.154439   0.000369  -0.008227   0.015774  -0.040176
     34      -0.034803   0.002843   0.003292   0.026696   0.014216  -0.122021
     35       0.035920   0.074462  -0.013528  -0.030100   0.025831   0.056830
     36       0.018273  -0.124925   0.039782   0.034782  -0.025581   0.032706
     37       0.090670   0.094362   0.112837   0.085098   0.030570   0.091821
     38      -0.030751   0.024272  -0.069488  -0.056813   0.007301  -0.053102
     39      -0.023481  -0.128637  -0.033164  -0.020706  -0.069321   0.003808
     40      -0.005151   0.088282  -0.133202  -0.131001  -0.036364  -0.008222
     41      -0.028263  -0.017180   0.076812   0.102135  -0.062753   0.013021
     42      -0.069109  -0.165267  -0.026695  -0.050115   0.372254   0.011873
     43      -0.519207  -0.356473  -0.062796   0.105333   0.434796   0.275036
     44       0.242746   0.102360   0.034721  -0.089503   0.020324  -0.139775
     45      -0.069105   0.165252   0.026683  -0.050108   0.372248   0.011874
     46       0.519220  -0.356435  -0.062799  -0.105342  -0.434796  -0.275038
     47       0.242746  -0.102338  -0.034715  -0.089507   0.020328  -0.139774
     48      -0.051988   0.197186   0.071505  -0.053853  -0.146017   0.049888
     49       0.007780   0.136580  -0.297791   0.311379   0.089472  -0.124389
     50      -0.028378   0.050169  -0.163429   0.197110  -0.038477  -0.055379
     51       0.026166   0.118945  -0.084227   0.080589  -0.060711   0.095435
     52      -0.187146   0.123253   0.238035  -0.166714  -0.069790  -0.271670
     53      -0.051110  -0.012201   0.141547  -0.126271   0.049600  -0.155043
     54       0.009412   0.166295  -0.001847  -0.003088   0.028853  -0.063463
     55       0.079116  -0.078237   0.013514  -0.057936  -0.028809   0.194406
     56       0.082671  -0.152998   0.023727  -0.060466   0.044885   0.091824
     57       0.037311   0.019889   0.105629  -0.138557   0.073389   0.063317
     58       0.123920   0.023225  -0.264716   0.264704   0.063646  -0.243300
     59       0.056691   0.011790  -0.138128   0.139889   0.034007  -0.130901
     60       0.065329   0.078750  -0.087363   0.056885   0.055524   0.068087
     61      -0.074090   0.068418   0.276219  -0.260214   0.010813  -0.220104
     62      -0.113773   0.085501   0.125729  -0.069827  -0.176887  -0.099723
     63       0.065331  -0.078743   0.087370   0.056890   0.055523   0.068088
     64       0.074083   0.068417   0.276197   0.260232  -0.010812   0.220104
     65      -0.113763  -0.085510  -0.125730  -0.069835  -0.176888  -0.099723
     66       0.037309  -0.019886  -0.105623  -0.138569   0.073390   0.063318
     67      -0.123915   0.023217  -0.264699  -0.264721  -0.063641   0.243299
     68       0.056689  -0.011787   0.138123   0.139899   0.034005  -0.130904
     69       0.009417  -0.166292   0.001862  -0.003088   0.028854  -0.063466
     70      -0.079118  -0.078247   0.013504   0.057934   0.028809  -0.194408
     71       0.082664   0.153005  -0.023726  -0.060467   0.044886   0.091826
     72       0.026175  -0.118944   0.084222   0.080596  -0.060709   0.095438
     73       0.187135   0.123264   0.238027   0.166731   0.069795   0.271671
     74      -0.051112   0.012199  -0.141540  -0.126281   0.049599  -0.155046
     75      -0.051972  -0.197185  -0.071497  -0.053862  -0.146017   0.049888
     76      -0.007778   0.136581  -0.297778  -0.311398  -0.089466   0.124387
     77      -0.028378  -0.050174   0.163416   0.197124  -0.038480  -0.055378
                 18         19         20         21         22         23    
      0       0.045890   0.235777  -0.081292   0.129572   0.021164  -0.000872
      1       0.064255  -0.061398   0.057707  -0.045478  -0.013416  -0.010056
      2       0.009743  -0.061983   0.044807  -0.106944   0.063170  -0.004402
      3      -0.045904   0.235781   0.081292  -0.129567   0.021163  -0.000870
      4       0.064253   0.061395   0.057707  -0.045473   0.013414   0.010056
      5      -0.009742  -0.061992  -0.044805   0.106943   0.063170  -0.004399
      6       0.069481   0.167885   0.061709  -0.158518   0.041728  -0.029591
      7      -0.171450   0.089846   0.046740  -0.033854  -0.025744   0.136005
      8      -0.078853  -0.065926  -0.083421  -0.008821   0.064544   0.065801
      9      -0.001160   0.023224   0.131582  -0.058995  -0.085859   0.035624
     10      -0.020048  -0.044178   0.072289   0.086528  -0.122128  -0.093487
     11       0.001152   0.116570  -0.066756  -0.202553   0.166142  -0.041278
     12      -0.036865   0.000810   0.233008   0.038363  -0.237297  -0.026849
     13       0.094888  -0.079805   0.010497   0.032579  -0.020907   0.112398
     14       0.040124   0.117296   0.146901  -0.054345  -0.086936   0.066040
     15       0.023924  -0.216021  -0.050723   0.151404  -0.044413   0.014986
     16      -0.116204  -0.095209  -0.083629   0.059409   0.020167  -0.094879
     17      -0.065123   0.081621   0.087658   0.001533  -0.079942  -0.042164
     18      -0.033964  -0.099615  -0.114920   0.021607   0.087407  -0.043242
     19       0.075898  -0.002529  -0.078598  -0.088625   0.134519   0.117240
     20       0.041407  -0.086455   0.124445   0.162846  -0.204004   0.054482
     21      -0.000486  -0.095269  -0.189810  -0.066608   0.205566   0.025057
     22      -0.006203   0.042412  -0.021498  -0.036357   0.032598  -0.087874
     23       0.025161  -0.115484  -0.120646   0.034869   0.064794  -0.051695
     24      -0.069491   0.167872  -0.061709   0.158522   0.041728  -0.029582
     25      -0.171443  -0.089860   0.046741  -0.033859   0.025742  -0.135976
     26       0.078858  -0.065916   0.083422   0.008820   0.064543   0.065786
     27       0.000491  -0.095262   0.189813   0.066604   0.205562   0.025051
     28      -0.006202  -0.042378  -0.021500  -0.036360  -0.032599   0.087857
     29      -0.025155  -0.115499   0.120648  -0.034873   0.064792  -0.051689
     30       0.033970  -0.099617   0.114920  -0.021611   0.087403  -0.043237
     31       0.075897   0.002530  -0.078601  -0.088628  -0.134521  -0.117215
     32      -0.041404  -0.086448  -0.124447  -0.162850  -0.204000   0.054470
     33      -0.023913  -0.216023   0.050723  -0.151409  -0.044413   0.014979
     34      -0.116208   0.095187  -0.083628   0.059414  -0.020165   0.094860
     35       0.065119   0.081630  -0.087661  -0.001532  -0.079941  -0.042153
     36       0.036867   0.000820  -0.233012  -0.038362  -0.237294  -0.026839
     37       0.094883   0.079827   0.010495   0.032581   0.020908  -0.112373
     38      -0.040130   0.117280  -0.146901   0.054349  -0.086933   0.066030
     39       0.001160   0.023218  -0.131582   0.058997  -0.085856   0.035621
     40      -0.020051   0.044157   0.072293   0.086530   0.122129   0.093465
     41      -0.001155   0.116576   0.066757   0.202558   0.166139  -0.041268
     42       0.096067   0.213976  -0.186547   0.279119   0.089784  -0.003197
     43       0.277441  -0.237286  -0.117481   0.205848   0.089203   0.082333
     44      -0.090860   0.023877   0.122670  -0.212398   0.014162  -0.049335
     45      -0.096083   0.213989   0.186547  -0.279113   0.089781  -0.003193
     46       0.277437   0.237297  -0.117483   0.205857  -0.089202  -0.082351
     47       0.090857   0.023874  -0.122668   0.212397   0.014163  -0.049341
     48      -0.033987  -0.158412  -0.037064  -0.006472   0.011103   0.092675
     49       0.128199  -0.085461   0.062507   0.077559  -0.082478  -0.301538
     50       0.078755   0.074370  -0.078127  -0.195057   0.184197  -0.150117
     51      -0.091006   0.083672   0.228685  -0.078949  -0.175563   0.020193
     52       0.286196   0.000127   0.046333  -0.096338   0.046752  -0.009960
     53       0.131926   0.005512   0.140224   0.090583  -0.149452  -0.010360
     54       0.044200  -0.222581  -0.159599   0.099916   0.082089   0.084420
     55      -0.180609  -0.054680   0.004667   0.091588  -0.068507  -0.321879
     56      -0.098754   0.097693  -0.130011  -0.086676   0.175888  -0.165948
     57      -0.105091   0.073322   0.044933  -0.049447  -0.008194   0.010161
     58       0.249445   0.036190  -0.012728  -0.093981   0.114501  -0.021254
     59       0.131225  -0.048058   0.166233   0.146417  -0.211799  -0.016362
     60      -0.061533  -0.190057  -0.188927   0.042048   0.140261   0.092268
     61       0.179088  -0.029118  -0.025097   0.122690  -0.029427  -0.315289
     62       0.129305   0.017798  -0.106193  -0.094646   0.132747  -0.165366
     63       0.061542  -0.190042   0.188929  -0.042053   0.140260   0.092243
     64       0.179086   0.029109  -0.025090   0.122697   0.029433   0.315212
     65      -0.129305   0.017776   0.106193   0.094645   0.132742  -0.165326
     66       0.105090   0.073317  -0.044933   0.049450  -0.008194   0.010158
     67       0.249443  -0.036184  -0.012728  -0.093985  -0.114500   0.021247
     68      -0.131224  -0.048055  -0.166237  -0.146419  -0.211796  -0.016358
     69      -0.044190  -0.222587   0.159603  -0.099920   0.082089   0.084399
     70      -0.180612   0.054649   0.004672   0.091595   0.068512   0.321806
     71       0.098749   0.097705   0.130009   0.086677   0.175883  -0.165916
     72       0.091007   0.083695  -0.228689   0.078953  -0.175560   0.020198
     73       0.286195  -0.000043   0.046329  -0.096336  -0.046746   0.009962
     74      -0.131929   0.005471  -0.140224  -0.090584  -0.149451  -0.010357
     75       0.033998  -0.158414   0.037066   0.006470   0.011104   0.092655
     76       0.128193   0.085446   0.062510   0.077566   0.082482   0.301470
     77      -0.078757   0.074374   0.078127   0.195059   0.184193  -0.150084
                 24         25         26         27         28         29    
      0       0.005613   0.013565  -0.058924  -0.050455   0.007591  -0.032776
      1      -0.000259  -0.042514  -0.118245  -0.103955  -0.091935   0.020787
      2       0.021199   0.073264   0.002530   0.013723   0.059582   0.088097
      3      -0.005614  -0.013556  -0.058925  -0.050453  -0.007593   0.033083
      4      -0.000255  -0.042531   0.118238   0.103954  -0.091937   0.021069
      5      -0.021201  -0.073264   0.002519   0.013720  -0.059582  -0.088233
      6       0.054572   0.036585   0.001540   0.036000  -0.009397   0.018852
      7      -0.130368  -0.018495   0.026666  -0.087419   0.096678   0.030523
      8      -0.074024  -0.021640   0.013246  -0.048318   0.040979  -0.004126
      9      -0.020928  -0.007597   0.037115   0.006373   0.020104  -0.001474
     10       0.090047   0.037393  -0.036858   0.038624  -0.027079  -0.063074
     11       0.048810   0.020402   0.002572   0.036988  -0.010780  -0.026584
     12       0.045098   0.009468   0.034534   0.021324   0.025574  -0.034104
     13      -0.111392   0.012613  -0.010806   0.008127  -0.007252  -0.025260
     14      -0.052950   0.010952   0.009855   0.017012   0.011206  -0.046366
     15      -0.033538  -0.027829  -0.008117  -0.029816  -0.012862   0.032709
     16       0.086582   0.029148  -0.036355   0.039323  -0.046493   0.008364
     17       0.048302   0.022744  -0.012386   0.026516  -0.011717  -0.018343
     18       0.033941  -0.008818  -0.005054  -0.008318   0.005709  -0.021913
     19      -0.113029   0.002541  -0.002585   0.014702  -0.003336  -0.012886
     20      -0.058647   0.004894  -0.014004  -0.004178  -0.026660   0.075786
     21      -0.030824  -0.013489   0.010567  -0.012279   0.014222  -0.025358
     22       0.088740   0.031771  -0.030009   0.045699  -0.028890   0.031698
     23       0.047536   0.029976  -0.018057   0.021301  -0.021272   0.065108
     24      -0.054579  -0.036585   0.001534   0.036000   0.009397  -0.018696
     25      -0.130398  -0.018492  -0.026667   0.087420   0.096677   0.030447
     26       0.074039   0.021639   0.013249  -0.048319  -0.040979   0.004070
     27       0.030828   0.013489   0.010569  -0.012281  -0.014222   0.025294
     28       0.088758   0.031768   0.030010  -0.045702  -0.028889   0.031805
     29      -0.047551  -0.029972  -0.018059   0.021303   0.021272  -0.064930
     30      -0.033953   0.008819  -0.005052  -0.008317  -0.005709   0.021842
     31      -0.113054   0.002542   0.002586  -0.014701  -0.003336  -0.012693
     32       0.058658  -0.004891  -0.014005  -0.004179   0.026660  -0.075411
     33       0.033540   0.027831  -0.008111  -0.029815   0.012862  -0.032514
     34       0.086603   0.029142   0.036360  -0.039321  -0.046493   0.008265
     35      -0.048311  -0.022743  -0.012390   0.026515   0.011717   0.018274
     36      -0.045101  -0.009474   0.034533   0.021325  -0.025574   0.033772
     37      -0.111415   0.012612   0.010809  -0.008126  -0.007252  -0.025262
     38       0.052967  -0.010955   0.009853   0.017012  -0.011205   0.046143
     39       0.020939   0.007591   0.037116   0.006373  -0.020104   0.001310
     40       0.090066   0.037388   0.036864  -0.038623  -0.027078  -0.063024
     41      -0.048817  -0.020404   0.002568   0.036987   0.010780   0.026521
     42       0.000236   0.078835   0.082550   0.066514   0.120209  -0.110349
     43       0.097292   0.402642   0.417932   0.274788   0.448934   0.085672
     44      -0.027849  -0.145856  -0.254705  -0.169279  -0.204368   0.044923
     45      -0.000234  -0.078842   0.082531   0.066513  -0.120204   0.110958
     46       0.097271   0.402703  -0.417870  -0.274782   0.448941   0.085528
     47       0.027833   0.145891  -0.254679  -0.169276   0.204368  -0.045250
     48      -0.095574   0.060855  -0.040478   0.060330  -0.025969  -0.115283
     49       0.303355  -0.211779   0.192725  -0.149277   0.068960   0.335385
     50       0.159299  -0.109348   0.121601  -0.060596   0.038480   0.177786
     51       0.007190   0.083930  -0.007780   0.104646  -0.005994  -0.128330
     52       0.027926  -0.200839   0.214195  -0.191785   0.160285   0.203859
     53       0.011226  -0.112225   0.087528  -0.116385   0.067649   0.107106
     54      -0.104816   0.058103  -0.092877   0.078708  -0.105779  -0.001421
     55       0.309255  -0.260554   0.219425  -0.322560   0.252685   0.081327
     56       0.156344  -0.143735   0.099129  -0.178430   0.136372  -0.000157
     57      -0.003329   0.053587  -0.042826   0.075318  -0.031040  -0.029640
     58       0.022818  -0.203559   0.167226  -0.224834   0.189524  -0.229767
     59       0.012684  -0.101877   0.076211  -0.127734   0.077010  -0.045616
     60      -0.107351   0.036894  -0.037511   0.057375  -0.048111   0.091569
     61       0.307944  -0.150882   0.114762  -0.195516   0.170163  -0.362019
     62       0.174746  -0.055484   0.063852  -0.098765   0.085662  -0.130548
     63       0.107369  -0.036889  -0.037516   0.057376   0.048112  -0.091582
     64       0.308009  -0.150871  -0.114774   0.195530   0.170160  -0.361827
     65      -0.174783   0.055479   0.063858  -0.098769  -0.085662   0.130677
     66       0.003334  -0.053586  -0.042836   0.075319   0.031042   0.029240
     67       0.022821  -0.203536  -0.167256   0.224830   0.189523  -0.229377
     68      -0.012688   0.101871   0.076228  -0.127734  -0.077011   0.045843
     69       0.104834  -0.058094  -0.092889   0.078710   0.105781   0.001593
     70       0.309321  -0.260527  -0.219467   0.322550   0.252683   0.081265
     71      -0.156383   0.143726   0.099155  -0.178429  -0.136375   0.000054
     72      -0.007180  -0.083935  -0.007798   0.104644   0.005996   0.127823
     73       0.027931  -0.200811  -0.214232   0.191775   0.160286   0.203956
     74      -0.011229   0.112216   0.087550  -0.116379  -0.067649  -0.107074
     75       0.095598  -0.060854  -0.040491   0.060327   0.025971   0.115108
     76       0.303417  -0.211755  -0.192762   0.149267   0.068960   0.335290
     77      -0.159331   0.109333   0.121621  -0.060593  -0.038481  -0.177794
                 30         31         32         33         34         35    
      0       0.155559  -0.004961  -0.062740   0.002449   0.018046   0.000232
      1      -0.138844   0.018147   0.047558   0.005799  -0.000662   0.001540
      2      -0.068789  -0.001101   0.108517  -0.002495  -0.025270   0.000866
      3       0.155325  -0.004926   0.062794   0.002429  -0.018072   0.000216
      4       0.138691  -0.018122   0.047613  -0.005796  -0.000670  -0.001544
      5      -0.068207  -0.001162  -0.108537  -0.002469   0.025283   0.000856
      6       0.078868  -0.004390   0.033686  -0.006555   0.000357  -0.001977
      7       0.039807  -0.000792   0.030108   0.020750  -0.031817   0.006675
      8      -0.028434   0.000151  -0.009734   0.011500  -0.010751   0.003809
      9      -0.079260   0.024480  -0.046923   0.015859  -0.011383  -0.012819
     10      -0.031363  -0.060223   0.043600  -0.049664   0.052616   0.039925
     11      -0.027484  -0.029385   0.037139  -0.021658   0.015619   0.017379
     12      -0.166918   0.016645  -0.076738  -0.001946   0.016741   0.024376
     13      -0.001076  -0.027421   0.023923   0.002689  -0.004460  -0.077262
     14      -0.111546  -0.009291  -0.038885   0.000287   0.008902  -0.038887
     15       0.101016  -0.006609   0.060212  -0.023159   0.011445  -0.007877
     16       0.050203   0.002223   0.001910   0.075021  -0.079317   0.017686
     17      -0.036494   0.002042  -0.033410   0.038502  -0.033079   0.010388
     18      -0.037063  -0.007311  -0.011183   0.002131   0.000924  -0.011272
     19      -0.094222   0.031306  -0.079071  -0.004341   0.018097   0.038431
     20       0.188661   0.006557   0.076832  -0.001927  -0.015691   0.017642
     21      -0.038303  -0.016880  -0.003568   0.013885  -0.010467   0.010684
     22      -0.048655   0.059816  -0.064945  -0.050809   0.059216  -0.028852
     23       0.085506   0.028222   0.024917  -0.029717   0.025592  -0.013035
     24       0.078997  -0.004409  -0.033656  -0.006556  -0.000361  -0.001993
     25      -0.040013   0.000810   0.030095  -0.020790  -0.031781  -0.006732
     26      -0.028458   0.000155   0.009724   0.011514   0.010740   0.003840
     27      -0.038439  -0.016877   0.003562   0.013900   0.010464   0.010759
     28       0.048561  -0.059847  -0.064888   0.050882   0.059142   0.029100
     29       0.085869   0.028205  -0.024917  -0.029751  -0.025552  -0.013169
     30      -0.037199  -0.007304   0.011176   0.002130  -0.000921  -0.011370
     31       0.094342  -0.031346  -0.079014   0.004359   0.018076  -0.038751
     32       0.189154   0.006512  -0.076780  -0.001908   0.015669   0.017811
     33       0.101233  -0.006640  -0.060169  -0.023180  -0.011437  -0.007918
     34      -0.050286  -0.002218   0.001904  -0.075122  -0.079207  -0.017832
     35      -0.036606   0.002058   0.033392   0.038547   0.033036   0.010463
     36      -0.167168   0.016687   0.076671  -0.001964  -0.016713   0.024562
     37       0.001201   0.027430   0.023900  -0.002691  -0.004454   0.077889
     38      -0.111837  -0.009266   0.038859   0.000275  -0.008890  -0.039215
[...]
    93. D(C   7,C   6,C   5,C   4)      0.01 -0.000003    0.01      0.02   
    94. D(C   2,C   7,C   6,H  19)   -179.98  0.000002   -0.01   -179.99   
    95. D(C   2,C   7,C   6,C   5)      0.12  0.000004   -0.02      0.10   
    96. D(H  20,C   7,C   2,C   3)    179.61 -0.000001    0.02    179.62   
    97. D(H  20,C   7,C   2,C   1)     -0.34 -0.000007    0.03     -0.31   
    98. D(C   6,C   7,C   2,C   3)     -0.16 -0.000002    0.02     -0.15   
    99. D(H  20,C   7,C   6,C   5)   -179.65  0.000003   -0.02   -179.67   
   100. D(C   6,C   7,C   2,C   1)    179.89 -0.000007    0.03    179.92   
   101. D(H  20,C   7,C   6,H  19)      0.26  0.000001   -0.01      0.25   
   102. D(C  13,C   8,C   0,H  14)      0.41  0.000012   -0.04      0.37   
   103. D(C  13,C   8,C   0,C   1)    178.02  0.000016   -0.07    177.95   
   104. D(C   9,C   8,C   0,H  14)   -179.65  0.000017   -0.05   -179.70   
   105. D(C   9,C   8,C   0,C   1)     -2.04  0.000021   -0.08     -2.12   
   106. D(H  21,C   9,C   8,C  13)    179.61 -0.000001    0.02    179.62   
   107. D(H  21,C   9,C   8,C   0)     -0.34 -0.000007    0.03     -0.31   
   108. D(C  10,C   9,C   8,C  13)     -0.16 -0.000002    0.02     -0.15   
   109. D(C  10,C   9,C   8,C   0)    179.89 -0.000007    0.02    179.92   
   110. D(H  22,C  10,C   9,H  21)      0.26  0.000001   -0.01      0.25   
   111. D(H  22,C  10,C   9,C   8)   -179.98  0.000002   -0.01   -179.99   
   112. D(C  11,C  10,C   9,H  21)   -179.65  0.000003   -0.02   -179.67   
   113. D(C  11,C  10,C   9,C   8)      0.12  0.000004   -0.02      0.10   
   114. D(H  23,C  11,C  10,H  22)      0.04 -0.000002    0.01      0.05   
   115. D(H  23,C  11,C  10,C   9)    179.95 -0.000005    0.02    179.96   
   116. D(C  12,C  11,C  10,H  22)   -179.90 -0.000000   -0.00   -179.90   
   117. D(C  12,C  11,C  10,C   9)      0.01 -0.000003    0.01      0.02   
   118. D(H  24,C  12,C  11,H  23)      0.03  0.000002   -0.00      0.03   
   119. D(H  24,C  12,C  11,C  10)    179.97  0.000000    0.01    179.97   
   120. D(C  13,C  12,C  11,H  23)    179.98  0.000001   -0.00    179.98   
   121. D(C  13,C  12,C  11,C  10)     -0.08 -0.000001    0.01     -0.07   
   122. D(H  25,C  13,C  12,H  24)      0.05  0.000002   -0.01      0.05   
   123. D(C   8,C  13,C  12,H  24)    179.98  0.000002   -0.01    179.97   
   124. D(C   8,C  13,C  12,C  11)      0.03  0.000003   -0.01      0.02   
   125. D(H  25,C  13,C   8,C   9)   -179.98 -0.000002   -0.00   -179.99   
   126. D(H  25,C  13,C   8,C   0)     -0.04  0.000004   -0.01     -0.05   
   127. D(H  25,C  13,C  12,C  11)   -179.90  0.000003   -0.01   -179.91   
   128. D(C  12,C  13,C   8,C   9)      0.09 -0.000002   -0.00      0.09   
   129. D(C  12,C  13,C   8,C   0)   -179.96  0.000004   -0.01   -179.98   
    ----------------------------------------------------------------------------

Geometry step timings:
Preparation and reading OPT file:      0.001 s (15.799 %)
Internal coordinates            :      0.000 s ( 0.738 %)
B/P matrices and projection     :      0.001 s (20.240 %)
Hessian update/contruction      :      0.001 s ( 7.943 %)
Making the step                 :      0.002 s (23.003 %)
Converting the step to Cartesian:      0.000 s ( 1.620 %)
Storing new data                :      0.000 s ( 0.637 %)
Checking convergence            :      0.000 s ( 0.376 %)
Final printing                  :      0.002 s (29.601 %)
Total time                      :      0.007 s
                 *******************************************************
                 *** FINAL ENERGY EVALUATION AT THE STATIONARY POINT ***
                 ***               (AFTER   12 CYCLES)               ***
                 *******************************************************
---------------------------------
CARTESIAN COORDINATES (ANGSTROEM)
---------------------------------
  C      0.640982    1.776820    0.350350
  C     -0.640982    1.776819   -0.350354
  C     -1.748129    0.977281   -0.017692
  C     -2.959083    1.092427   -0.743188
  C     -4.052194    0.318500   -0.430973
  C     -3.989758   -0.600538    0.613007
  C     -2.810726   -0.733400    1.340419
  C     -1.709257    0.034132    1.037488
  C      1.748129    0.977281    0.017691
  C      1.709257    0.034129   -1.037488
  C      2.810726   -0.733404   -1.340417
  C      3.989758   -0.600540   -0.613005
  C      4.052194    0.318501    0.430972
  C      2.959083    1.092429    0.743186
  H      0.767345    2.473803    1.170225
  H     -0.767344    2.473799   -1.170231
  H     -3.013349    1.804109   -1.552124
  H     -4.962873    0.425549   -0.998421
  H     -4.848115   -1.205250    0.855376
  H     -2.757584   -1.445185    2.148780
  H     -0.797759   -0.077027    1.600792
  H      0.797759   -0.077031   -1.600791
  H      2.757584   -1.445191   -2.148776
  H      4.848116   -1.205252   -0.855373
  H      4.962873    0.425552    0.998420
  H      3.013349    1.804113    1.552119

----------------------------
CARTESIAN COORDINATES (A.U.)
----------------------------
  NO LB      ZA    FRAG     MASS         X           Y           Z
   0 C     6.0000    0    12.011    1.211281    3.357704    0.662066
   1 C     6.0000    0    12.011   -1.211281    3.357702   -0.662073
   2 C     6.0000    0    12.011   -3.303485    1.846794   -0.033434
   3 C     6.0000    0    12.011   -5.591856    2.064389   -1.404423
   4 C     6.0000    0    12.011   -7.657537    0.601878   -0.814420
   5 C     6.0000    0    12.011   -7.539551   -1.134853    1.158415
   6 C     6.0000    0    12.011   -5.311503   -1.385926    2.533025
   7 C     6.0000    0    12.011   -3.230027    0.064500    1.960569
   8 C     6.0000    0    12.011    3.303485    1.846794    0.033430
   9 C     6.0000    0    12.011    3.230027    0.064495   -1.960568
  10 C     6.0000    0    12.011    5.311503   -1.385932   -2.533020
  11 C     6.0000    0    12.011    7.539551   -1.134855   -1.158412
  12 C     6.0000    0    12.011    7.657537    0.601880    0.814419
  13 C     6.0000    0    12.011    5.591856    2.064393    1.404418
  14 H     1.0000    0     1.008    1.450071    4.674810    2.211405
  15 H     1.0000    0     1.008   -1.450070    4.674803   -2.211416
  16 H     1.0000    0     1.008   -5.694404    3.409272   -2.933088
  17 H     1.0000    0     1.008   -9.378470    0.804172   -1.886743
  18 H     1.0000    0     1.008   -9.161610   -2.277593    1.616427
  19 H     1.0000    0     1.008   -5.211078   -2.731005    4.060606
  20 H     1.0000    0     1.008   -1.507546   -0.145560    3.025059
  21 H     1.0000    0     1.008    1.507546   -0.145568   -3.025057
  22 H     1.0000    0     1.008    5.211078   -2.731015   -4.060598
  23 H     1.0000    0     1.008    9.161611   -2.277596   -1.616421
  24 H     1.0000    0     1.008    9.378471    0.804178    1.886741
  25 H     1.0000    0     1.008    5.694404    3.409280    2.933081

--------------------------------
INTERNAL COORDINATES (ANGSTROEM)
--------------------------------
 C      0   0   0     0.000000000000     0.00000000     0.00000000
 C      1   0   0     1.460965477881     0.00000000     0.00000000
 C      2   1   0     1.405595624489   125.28566578     0.00000000
 C      3   2   1     1.416337194834   120.39613600   177.95036507
 C      4   3   2     1.375258097305   121.16742921   180.02500580
 C      5   4   3     1.392272719384   120.40161895     0.00000000
 C      6   5   4     1.391724266831   119.53304937   359.92545971
 C      7   6   5     1.376266062122   120.64615256     0.00000000
 C      1   2   3     1.405595655127   125.28564198    91.65052069
 C      9   1   2     1.415785385083   122.25545448   357.88309614
 C     10   9   1     1.376266059839   120.90319947   179.91848998
 C     11  10   9     1.391724265649   120.64615359     0.09649335
 C     12  11  10     1.392272719660   119.53304814     0.00000000
 C     13  12  11     1.375258094192   120.40161914   359.92545340
 H      1   2   3     1.083488139690   117.72722788   269.21288222
 H      2   1   3     1.083488124282   117.72721296   177.56238676
 H      4   3   2     1.078801032039   118.73355223   359.95075995
 H      5   4   3     1.078329073968   119.73126479   179.97327882
 H      6   5   4     1.077588028194   120.22257914   179.97955315
 H      7   6   5     1.078383035652   119.77242283   180.09948540
 H      8   7   6     1.077262795407   120.30063345   180.32840382
 H     10   9   1     1.077262792177   118.79577389   359.69000718
 H     11  10   9     1.078383032901   119.58137213   180.01369825
 H     12  11  10     1.077588021554   120.24434979   179.96243079
 H     13  12  11     1.078329070646   119.86710029   179.97195195
 H     14  13  12     1.078801026456   120.09897585   180.09496275

---------------------------
INTERNAL COORDINATES (A.U.)
---------------------------
 C      0   0   0     0.000000000000     0.00000000     0.00000000
 C      1   0   0     2.760824644309     0.00000000     0.00000000
 C      2   1   0     2.656190785322   125.28566578     0.00000000
 C      3   2   1     2.676489411522   120.39613600   177.95036507
 C      4   3   2     2.598861167364   121.16742921   180.02500580
 C      5   4   3     2.631014143365   120.40161895     0.00000000
 C      6   5   4     2.629977718242   119.53304937   359.92545971
 C      7   6   5     2.600765944821   120.64615256     0.00000000
 C      1   2   3     2.656190843220   125.28564198    91.65052069
 C      9   1   2     2.675446642215   122.25545448   357.88309614
 C     10   9   1     2.600765940506   120.90319947   179.91848998
 C     11  10   9     2.629977716008   120.64615359     0.09649335
 C     12  11  10     2.631014143887   119.53304814     0.00000000
 C     13  12  11     2.598861161481   120.40161914   359.92545340
 H      1   2   3     2.047495853365   117.72722788   269.21288222
 H      2   1   3     2.047495824249   117.72721296   177.56238676
 H      4   3   2     2.038638503546   118.73355223   359.95075995
 H      5   4   3     2.037746632045   119.73126479   179.97327882
 H      6   5   4     2.036346258479   120.22257914   179.97955315
 H      7   6   5     2.037848604850   119.77242283   180.09948540
 H      8   7   6     2.035731657581   120.30063345   180.32840382
 H     10   9   1     2.035731651478   118.79577389   359.69000718
 H     11  10   9     2.037848599651   119.58137213   180.01369825
 H     12  11  10     2.036346245930   120.24434979   179.96243079
 H     13  12  11     2.037746625767   119.86710029   179.97195195
 H     14  13  12     2.038638492996   120.09897585   180.09496275

Calling /home/x_rompe/bin/oqp_orca_wrapper_python stilbene_TS_Compound_2_EXT.extinp.tmp -s 1  -b 6-31g*  ... 

MPI startup(): PMI server not found. Please set I_MPI_PMI_LIBRARY variable if it is not a singleton case.
input.charge=0
input.basis=6-31g*
input.functional=bhhlyp
input.method=tdhf
input.runtype=grad
input.system=stilbene_TS_Compound_2.xyz
input.system2=
input.d4=False
guess.type=json
guess.file=EXT_ORCA_FOR_OQP.json
guess.file2=
guess.save_mol=True
guess.continue_geom=False
scf.type=rohf
scf.maxit=100
scf.forced_attempt=1
scf.maxdiis=7
scf.diis_reset_mod=10
scf.diis_reset_conv=0.005
scf.diis_method_threshold=2.0
scf.diis_type=cdiis
scf.vdiis_cdiis_switch=0.3
scf.vdiis_vshift_switch=0.003
scf.vshift_cdiis_switch=0.3
scf.vshift=0.0
scf.mom=False
scf.mom_switch=0.003
scf.pfon=False
scf.pfon_start_temp=2000.0
scf.pfon_cooling_rate=50.0
scf.pfon_nsmear=5.0
scf.multiplicity=3
scf.conv=1.0e-6
scf.incremental=True
scf.init_scf=no
scf.init_it=0
scf.save_molden=True
dftgrid.hfscale=-1.0
dftgrid.cam_flag=False
dftgrid.cam_alpha=-1.0
dftgrid.cam_beta=-1.0
dftgrid.cam_mu=-1.0
dftgrid.rad_type=mhl
dftgrid.rad_npts=50
dftgrid.ang_npts=194
dftgrid.partfun=ssf
dftgrid.pruned=SG1
dftgrid.grid_ao_pruned=True
dftgrid.grid_ao_threshold=1.0e-15
dftgrid.grid_ao_sparsity_ratio=0.9
tdhf.type=mrsf
tdhf.maxit=50
tdhf.maxit_zv=50
tdhf.multiplicity=1
tdhf.conv=1.0e-6
tdhf.nstate=3
tdhf.zvconv=1.0e-6
tdhf.nvdav=50
tdhf.tlf=2
tdhf.hfscale=-1.0
tdhf.cam_alpha=-1.0
tdhf.cam_beta=-1.0
tdhf.cam_mu=-1.0
tdhf.spc_coco=-1.0
tdhf.spc_ovov=-1.0
tdhf.spc_coov=-1.0
tdhf.conf_threshold=5.0e-2
properties.scf_prop=el_mom,mulliken
properties.td_prop=False
properties.grad=1
properties.nac=
properties.soc=
properties.export=True
properties.title=
properties.back_door=False
optimize.lib=scipy
optimize.optimizer=bfgs
optimize.step_size=0.1
optimize.step_tol=1e-2
optimize.maxit=30
optimize.mep_maxit=10
optimize.rmsd_grad=1e-4
optimize.rmsd_step=1e-3
optimize.max_grad=3e-4
optimize.max_step=2e-3
optimize.istate=1
optimize.jstate=2
optimize.kstate=3
optimize.imult=1
optimize.jmult=3
optimize.energy_shift=1e-6
optimize.energy_gap=1e-5
optimize.meci_search=penalty
optimize.pen_sigma=1.0
optimize.pen_alpha=0.0
optimize.pen_incre=1.0
optimize.gap_weight=1.0
optimize.init_scf=False
dlfind.printl=2
dlfind.icoord=3
dlfind.iopt=3
dlfind.ims=0
hess.type=numerical
hess.state=0
hess.dx=0.01
hess.nproc=1
hess.read=False
hess.restart=False
hess.temperature=298.15
hess.clean=False
nac.type=numerical
nac.dt=1
nac.dx=0.0001
nac.bp=False
nac.nproc=1
nac.restart=False
nac.clean=False
nac.states=1 2
nac.align=reorder
basis_set.library=
tests.exception=False
functional=bhhlyp

External program completed successfully in 70.091 sec

-------------------------------------------------   --------------------
FINAL SINGLE POINT ENERGY (From external program)      -540.281094810000
-------------------------------------------------   --------------------


------------------
CARTESIAN GRADIENT
------------------

   1   C   :   -0.000009099    0.000008103   -0.000020122
   2   C   :    0.000009067    0.000008193    0.000020077
   3   C   :    0.000017982   -0.000103155   -0.000047150
   4   C   :    0.000011090   -0.000009244   -0.000004823
   5   C   :   -0.000002696   -0.000015288    0.000009115
   6   C   :   -0.000006274    0.000003239   -0.000000283
   7   C   :    0.000003852    0.000004258    0.000006850
   8   C   :   -0.000015138    0.000005051    0.000007368
   9   C   :   -0.000017923   -0.000103109    0.000047220
  10   C   :    0.000015126    0.000005053   -0.000007372
  11   C   :   -0.000003853    0.000004258   -0.000006840
  12   C   :    0.000006270    0.000003247    0.000000290
  13   C   :    0.000002690   -0.000015288   -0.000009121
  14   C   :   -0.000011081   -0.000009262    0.000004802
  15   H   :    0.000021448    0.000072331   -0.000070739
  16   H   :   -0.000021453    0.000072361    0.000070723
  17   H   :    0.000002615   -0.000003983    0.000004965
  18   H   :   -0.000001920   -0.000006761    0.000002717
  19   H   :    0.000002537   -0.000008690   -0.000001873
  20   H   :    0.000000271   -0.000003470    0.000004191
  21   H   :    0.000006203   -0.000007092   -0.000005460
  22   H   :   -0.000006207   -0.000007086    0.000005461
  23   H   :   -0.000000273   -0.000003466   -0.000004189
  24   H   :   -0.000002542   -0.000008688    0.000001877
  25   H   :    0.000001922   -0.000006762   -0.000002716
  26   H   :   -0.000002614   -0.000003980   -0.000004968

Difference to translation invariance:
           :    0.0000000006   -0.0001292284   -0.0000000007

Difference to rotation invariance:
           :    0.0000000002    0.0002846863   -0.0000000019

Norm of the Cartesian gradient     ...    0.0002270106
RMS gradient                       ...    0.0000257039
MAX gradient                       ...    0.0001031550
                                *** OPTIMIZATION RUN DONE ***


Timings for individual modules:

Sum of individual times          ...     1147.964 sec (=  19.133 min)
Geometry relaxation              ...        0.205 sec (=   0.003 min)   0.0 %
External energy and gradient     ...     1147.760 sec (=  19.129 min) 100.0 %
================================================================================

----- Orbital basis set information -----
Your calculation utilizes the basis: def2-SVP
   F. Weigend and R. Ahlrichs, Phys. Chem. Chem. Phys. 7, 3297 (2005).


--------------------------------
SUGGESTED CITATIONS FOR THIS RUN
--------------------------------

Below you find a list of papers that are relevant to this ORCA run
We neither can nor want to force you to cite these papers, but we appreciate if you do
You receive ORCA, which is the product of decades of hard work by many enthusiastic individuals, for free
The only thing we kindly ask in return is that you cite our papers,
We deeply appreciate it, if you show your appreciation for ORCA by not just citing the generic ORCA reference.

Please note that relegating all ORCA citations to the supporting information does *not* help us.
SI sections are not indexed - citations you put there will not count into any citation statistics
But we need these citations in order to attract the funding resources that allow us to do what we are doing

Therefore, if you are a happy ORCA user, please consider citing a few of the papers listed below in the main body of your paper

In addition to the list printed below, the program has created the file stilbene_TS.bibtex that contains the list in bibtex format
You can import this file easily into all common literature databanks and citation aid programs


List of essential papers. We consider these as the minimum necessary citations

  1. Bannwarth,C.; Ehlert,S.; Grimme,S.
     GFN2-xTB—An Accurate and Broadly Parametrized Self-Consistent Tight-Binding Quantum Chemical Method with Multipole Electrostatics and Density-Dependent Dispersion Contributions
     J. Chem. Theory Comput., 2019 15(3)1652-1671
     doi.org/10.1021/acs.jctc.8b01176
  2. Neese,F.
     Software update: the ORCA program system, version 5.0
     WIRES Comput. Molec. Sci., 2022 12(1)e1606
     doi.org/10.1002/wcms.1606

List of papers to cite with high priority. The work reported in these papers was absolutely
necessary for this run to complete.
Our perspective: the developers of density functionals and basis sets usually get cited in chemistry papers
Good! But without the algorithms to do something with them, the functionals or basis sets would not do anything.
Hence, in our opinion, the algorithm design and method developments papers are equally worthy of getting cited

  1. Bykov,D.; Petrenko,T.; Izsak,R.; Kossmann,S.; Becker,U.; Valeev,E.; Neese,F.
     Efficient implementation of the analytic second derivatives of Hartree-Fock and hybrid DFT energies: a detailed analysis of different approximations
     Molec. Phys., 2015 113 1961-1977
     doi.org/10.1080/00268976.2015.1025114
  2. Bannwarth,C.; Caldeweyher,E.; Ehlert,S.; Hansen,A.; Pracht,P.; Seibert,J.; Spicher,S.; Grimme,S.
     Extended tight-binding quantum chemistry methods
     WIRES Comput. Molec. Sci., 2020 11(2)e1493
     doi.org/10.1002/wcms.1493
  3. Neese,F.
     The SHARK Integral Generation and Digestion System
     J. Comp. Chem., 2022  1-16
     doi.org/10.1002/jcc.26942

List of suggested additional citations. These are papers that are important in the 'surrounding' of 
of this run, or papers that preceded the highly important papers. If you like your results we are grateful for a citation.

  1. Neese,F.
     The ORCA program system
     WIRES Comput. Molec. Sci., 2012 2(1)73-78
     doi.org/10.1002/wcms.81
  2. Neese,F.
     Software update: the ORCA program system, version 4.0
     WIRES Comput. Molec. Sci., 2018 8(1)1-6
     doi.org/10.1002/wcms.1327
  3. Neese,F.; Wennmohs,F.; Becker,U.; Riplinger,C.
     The ORCA quantum chemistry program package
     J. Chem. Phys., 2020 152 Art. No. L224108
     doi.org/10.1063/5.0004608

List of optional additional citations

  1. Neese,F.
     Approximate second-order SCF convergence for spin unrestricted wavefunctions
     Chem. Phys. Lett., 2000 325(1-3)93-98
     doi.org/10.1016/s0009-2614(00)00662-x
                             ****ORCA TERMINATED NORMALLY****
TOTAL RUN TIME: 0 days 0 hours 19 minutes 19 seconds 110 msec
