
                                 *****************
                                 * O   R   C   A *
                                 *****************

                                            #,                                       
                                            ###                                      
                                            ####                                     
                                            #####                                    
                                            ######                                   
                                           ########,                                 
                                     ,,################,,,,,                         
                               ,,#################################,,                 
                          ,,##########################################,,             
                       ,#########################################, ''#####,          
                    ,#############################################,,   '####,        
                  ,##################################################,,,,####,       
                ,###########''''           ''''###############################       
              ,#####''   ,,,,##########,,,,          '''####'''          '####       
            ,##' ,,,,###########################,,,                        '##       
           ' ,,###''''                  '''############,,,                           
         ,,##''                                '''############,,,,        ,,,,,,###''
      ,#''                                            '''#######################'''  
     '                                                          ''''####''''         
             ,#######,   #######,   ,#######,      ##                                
            ,#'     '#,  ##    ##  ,#'     '#,    #''#        ,####,   ,####,        
            ##       ##  ##   ,#'  ##            #'  '#       #'       #'  '#        
            ##       ##  #######   ##           ,######,      #####,   #    #        
            '#,     ,#'  ##    ##  '#,     ,#' ,#      #,     #,   #   #,  ,#        
             '#######'   ##     ##  '#######'  #'      '#     '####' # '####'        



                #########################################################
                #                        -***-                          #
                #          Department of theory and spectroscopy        #
                #                                                       #
                #                      Frank Neese                      #
                #                                                       #
                #     Directorship, Architecture, Infrastructure        #
                #                    SHARK, DRIVERS                     #
                #        Core code/Algorithms in most modules           #
                #                                                       #
                #        Max Planck Institute fuer Kohlenforschung      #
                #                Kaiser Wilhelm Platz 1                 #
                #                 D-45470 Muelheim/Ruhr                 #
                #                      Germany                          #
                #                                                       #
                #                  All rights reserved                  #
                #                        -***-                          #
                #########################################################


                         Program Version 6.0.1  -  RELEASE   -


 With contributions from (in alphabetic order):
[Max-Planck-Institut fuer Kohlenforschung]                               
  Daniel Aravena         : Magnetic Suceptibility                        
  Michael Atanasov       : Ab Initio Ligand Field Theory (pilot matlab implementation)
  Alexander A. Auer      : GIAO ZORA, VPT2 properties, NMR spectrum      
  Ute Becker             : All parallelization in ORCA, NUMFREQ, NUMCALC 
  Giovanni Bistoni       : ED, misc. LED, open-shell LED, HFLD           
  Martin Brehm           : Molecular dynamics                            
  Dmytro Bykov           : pre 5.0 version of the SCF Hessian            
  Marcos Casanova-Páez   : Triplet and SCS-CIS(D). UHF-(DLPNO)-IP/EA/STEOM-CCSD. UHF-CVS-IP/STEOM-CCSD   
  Vijay G. Chilkuri      : MRCI spin determinant printing, contributions to CSF-ICE 
  Pauline Colinet        : FMM embedding                                 
  Dipayan Datta          : RHF DLPNO-CCSD density                        
  Achintya Kumar Dutta   : EOM-CC, STEOM-CC                              
  Nicolas Foglia         : Exact transition moments, OPA infrastructure, MCD improvements    
  Dmitry Ganyushin       : Spin-Orbit,Spin-Spin,Magnetic field MRCI      
  Miquel Garcia-Rates    : C-PCM and meta-GGA Hessian, CCSD/C-PCM, Gaussian charge scheme 
  Tiago L. C. Gouveia    : GS-ROHF, GS-ROCIS                             
  Yang Guo               : DLPNO-NEVPT2, F12-NEVPT2, CIM, IAO-localization        
  Andreas Hansen         : Spin unrestricted coupled pair/coupled cluster methods 
  Ingolf Harden          : AUTO-CI MPn and infrastructure                
  Benjamin Helmich-Paris : MC-RPA, TRAH-(SCF,CASSCF), AVAS, COSX integrals, SCF dyn. polar. 
  Lee Huntington         : MR-EOM, pCC                                   
  Robert Izsak           : Overlap fitted RIJCOSX, COSX-SCS-MP3, EOM     
  Riya Kayal             : Wick's Theorem for AUTO-CI, AUTO-CI UHF-CCSDT 
  Emily Kempfer          : AUTO-CI, RHF CISDT and CCSDT                  
  Christian Kollmar      : KDIIS, OOCD, Brueckner-CCSD(T), CCSD density, CASPT2, CASPT2-K, improved NEVPT2 
  Axel Koslowski         : Symmetry handling                             
  Simone Kossmann        : meta-GGA functionals, TD-DFT gradient, OOMP2, (MP2 Hessian; deprecated post 5.0) 
  Lucas Lang             : DCDCAS                                        
  Marvin Lechner         : AUTO-CI (C++ implementation), FIC-MRCC        
  Spencer Leger          : CASSCF response                               
  Dagmar Lenk            : GEPOL surface, SMD, ORCA-2-JSON               
  Dimitrios Liakos       : Extrapolation schemes; Compound Job, initial MDCI parallelization 
  Dimitrios Manganas     : Further ROCIS development; embedding schemes. LFT, Crystal Embedding 
  Dimitrios Pantazis     : SARC Basis sets                               
  Anastasios Papadopoulos: AUTO-CI, single reference methods and gradients 
  Taras Petrenko         : pre 6.0 DFT Hessian and TD-DFT gradient, (ASA, deprecated), ECA, 1-Electron XAS/XES, NRVS 
  Peter Pinski           : DLPNO-MP2, DLPNO-MP2 Gradient                 
  Christoph Reimann      : Effective Core Potentials                     
  Marius Retegan         : Local ZFS, SOC                                
  Christoph Riplinger    : Optimizer, TS searches, QM/MM, DLPNO-CCSD(T), (RO)-DLPNO pert. Triples 
  Michael Roemelt        : Original ROCIS implementation                 
  Masaaki Saitow         : Open-shell DLPNO-CCSD energy and density      
  Barbara Sandhoefer     : DKH picture change effects                    
  Kantharuban Sivalingam : CASSCF convergence/infrastructure, NEVPT2 and variants, FIC-MRCI 
  Bernardo de Souza      : ESD, SOC TD-DFT                               
  Georgi L. Stoychev     : AutoAux, RI-MP2 NMR, DLPNO-MP2 response, X2C  
  Van Anh Tran           : RI-MP2 g-tensors                              
  Willem Van den Heuvel  : Paramagnetic NMR                              
  Zikuan Wang            : NOTCH, Electric field optimization            
  Frank Wennmohs         : Technical directorship and infrastructure     
  Hang Xu                : AUTO-CI-Response properties                   
                                                                         
[FACCTs GmbH]                                                            
  Markus Bursch, Miquel Garcia-Rates, Christoph Riplinger, Bernardo de Souza, Georgi L. Stoychev 
                                                                 
  APM, Basis sets (HGBS, AHGBS, def-TZVP (Ac-Lr), def2-XVPD (La-Lu)), CI-OPT, improved COSX, DLPNO-Multilevel,           
  DOCKER, DRACO, updates on ESD, GOAT, IRC, LR-CPCM, MBIS, meta-GGA TD-DFT gradient, ML-optimized integration grids, 
  MM, NACMEs, nearIR, NEB, NEB-TS, NL-DFT gradient (VV10), 2- and 3-layer-ONIOM, interface openCOSMO-RS, QMMM,   
  Crystal-QMMM, SF, symmetry and pop. for TD-DFT, r2SCAN hybrids, SOLVATOR                                   
                                                                         
[Other institutions]                                                     
  V. Asgeirsson          : NEB                                           
  Christoph Bannwarth    : sTDA-DFT, sTD-DFT, PBEh-3c, B97-3c, D3        
  Sebastian Ehlert       : rSCAN, r2SCAN, r2SCAN-3c, D4, dhf basis sets  
  Marvin Friede          : D4 for Fr, Ra, Ac-Lr                          
  Lars Goerigk           : TD-DFT with DH, B97 family of functionals     
  Stefan Grimme          : VdW corrections, initial TS optimization, DFT functionals, gCP, sTDA/sTD-DF 
  Waldemar Hujo          : DFT-NL                                        
  H. Jonsson             : NEB                                           
  Holger Kruse           : gCP                                           
  Marcel Mueller         : wB97X-3c, vDZP basis set                      
  Hagen Neugebauer       : wr2SCAN                                       
  Tobias Risthaus        : range-separated hybrid DFT                    
  Lukas Wittmann         : regularized MP2, r2SCAN double-hybrids, wr2SCAN        
                                                                         
We gratefully acknowledge several colleagues who have allowed us to      
interface, adapt or use parts of their codes:                            
  Ed Valeev, F. Pavosevic, A. Kumar             : LibInt (2-el integral package), F12 methods 
  Garnet Chan, S. Sharma, J. Yang, R. Olivares  : DMRG                   
  Ulf Ekstrom                                   : XCFun DFT Library      
  Mihaly Kallay                                 : mrcc  (arbitrary order and MRCC methods)
  Frank Weinhold                                : gennbo (NPA and NBO analysis)           
  Simon Mueller                                 : openCOSMO-RS                            
  Christopher J. Cramer and Donald G. Truhlar   : smd solvation model                     
  S Lehtola, MJT Oliveira, MAL Marques          : LibXC Library                           
  Liviu Ungur et al                             : ANISO software                          


 Your calculation uses the libint2 library for the computation of 2-el integrals
 For citations please refer to: http://libint.valeyev.net

 Your ORCA version has been built with support for libXC version: 6.2.2
 For citations please refer to: https://libxc.gitlab.io

 This ORCA versions uses:
   CBLAS   interface :  Fast vector & matrix operations
   LAPACKE interface :  Fast linear algebra routines
   SCALAPACK package :  Parallel linear algebra routines
   Shared memory     :  Shared parallel matrices
   BLAS/LAPACK       :  OpenBLAS 0.3.27  USE64BITINT DYNAMIC_ARCH NO_AFFINITY SkylakeX SINGLE_THREADED
        Core in use  :  SkylakeX
   Copyright (c) 2011-2014, The OpenBLAS Project


NOTE: MaxCore=3000 MB was set to SCF,MP2,MDCI,CIPSI,MRCI and CIS
      => If you want to overwrite this, your respective input block should be placed after the MaxCore statement
================================================================================

================================================================================
                                        WARNINGS
                       Please study these warnings very carefully!
================================================================================


WARNING: Geometry Optimization
  ===> : Switching off AutoStart
         For restart on a previous wavefunction, please use MOREAD

Using external energy/gradient program given in input:
  "/home/x_rompe/bin/ExtOptORCA-OpenQP/oqp_orca_wrapper"


WARNING: four-center integrals in TRAH must be done with SHARK!
  ===> : Turning Shark on


================================================================================
                                       INPUT FILE
================================================================================
NAME = stilbene_scan.inp
|  1> ! ExtOpt opt
|  2> %method
|  3>   ProgExt "/home/x_rompe/bin/ExtOptORCA-OpenQP/oqp_orca_wrapper"
|  4>   Ext_Params "1 6-31g*"
|  5> end
|  6> %geom
|  7>   Scan
|  8>   D 0 1 2 3 = 180.0, 0.0, 18
|  9>   end
| 10> end
| 11> %pal
| 12> nprocs 8
| 13> end
| 14> %maxcore 3000
| 15> *xyz 0 1
| 16>  C          1.8713609950       -0.4318096607        0.1674402115
| 17>  C          0.4291302044       -0.5163591850        0.0281993765
| 18>  C         -0.4247707642        0.5121206455       -0.0738861145
| 19>  C         -1.8669192328        0.4289274897       -0.2142114012
| 20>  C         -2.5696978689       -0.7779809830       -0.2642420332
| 21>  C         -3.9437300212       -0.7919752544       -0.3983650985
| 22>  C         -4.6534705286        0.3949958536       -0.4857843043
| 23>  C         -3.9739003283        1.6009689294       -0.4385012096
| 24>  C         -2.5998430810        1.6164949653       -0.3046189584
| 25>  C          2.5696700854        0.7760990974        0.2473590205
| 26>  C          3.9440953125        0.7920531346        0.3774735115
| 27>  C          4.6586889964       -0.3939987095        0.4318669598
| 28>  C          3.9834881101       -1.6009650925        0.3556784235
| 29>  C          2.6089624527       -1.6184485588        0.2260954140
| 30>  H          0.0461172127       -1.5283548084        0.0054080409
| 31>  H         -0.0408850804        1.5238048377       -0.0551405289
| 32>  H         -2.0390996916       -1.7153030598       -0.1982068109
| 33>  H         -4.4683300275       -1.7360842263       -0.4347282961
| 34>  H         -5.7283952565        0.3793531681       -0.5897211745
| 35>  H         -4.5187140004        2.5316715867       -0.5060113163
| 36>  H         -2.0774044894        2.5625180160       -0.2684761407
| 37>  H          2.0351593909        1.7127404260        0.2092224673
| 38>  H          4.4649888630        1.7369675099        0.4379591663
| 39>  H          5.7338415114       -0.3768405101        0.5338043016
| 40>  H          4.5320737046       -2.5309534440        0.3983311897
| 41>  H          2.0900736116       -2.5652936831        0.1676231856
| 42> **                         ****END OF INPUT****
================================================================================

                       ******************************
                       *    Relaxed Surface Scan    *
                       ******************************

        Dihedral (  3,   2,   1,   0):   range= 180.00000000 ..   0.00000000  steps =   18

There is 1 parameter to be scanned.
There will be   18 constrained geometry optimizations.


         *************************************************************
         *               RELAXED SURFACE SCAN STEP   1               *
         *                                                           *
         *   Dihedral (  3,   2,   1,   0)  : 180.00000000           *
         *************************************************************

Geometry optimization settings:
Update method            Update   .... BFGS
Choice of coordinates    CoordSys .... (2022) Redundant Internals
Initial Hessian          InHess   .... Almloef's Model
Max. no of cycles        MaxIter  .... 78

Convergence Tolerances:
Energy Change            TolE     ....  5.0000e-06 Eh
Max. Gradient            TolMAXG  ....  3.0000e-04 Eh/bohr
RMS Gradient             TolRMSG  ....  1.0000e-04 Eh/bohr
Max. Displacement        TolMAXD  ....  4.0000e-03 bohr
RMS Displacement         TolRMSD  ....  2.0000e-03 bohr
Strict Convergence                .... False

------------------------------------------------------------------------------
                        ORCA OPTIMIZATION COORDINATE SETUP
------------------------------------------------------------------------------

The optimization will be done in redundant internal coordinates (2022)
Making redundant internal coordinates   ...  (2022 redundants) done
Evaluating the initial hessian          ...  (Almloef) done
Evaluating the coordinates              ...  done
Calculating the B-matrix                .... done
Calculating the G-matrix                .... done
Diagonalizing the G-matrix              .... done
Small eigenvalue found = 4.380e-03
Small eigenvalue found = 2.686e-02
Small eigenvalue found = 2.933e-02
The first mode is                       ....   57
The number of degrees of freedom        ....   72
Storing new coordinates                 .... done

    -----------------------------------------------------------------
                    Redundant Internal Coordinates


    -----------------------------------------------------------------
         Definition                    Initial Value    Approx d2E/dq
    -----------------------------------------------------------------
      1. B(C   1,C   0)                  1.4514         0.498628   
      2. B(C   2,C   1)                  1.3406         0.748989   
      3. B(C   3,C   2)                  1.4513         0.498730   
      4. B(C   4,C   3)                  1.3975         0.607799   
      5. B(C   5,C   4)                  1.3806         0.646669   
      6. B(C   6,C   5)                  1.3857         0.634652   
      7. B(C   7,C   6)                  1.3851         0.636212   
      8. B(C   8,C   3)                  1.3985         0.605695   
      9. B(C   8,C   7)                  1.3807         0.646626   
     10. B(C   9,C   0)                  1.3975         0.607769   
     11. B(C  10,C   9)                  1.3807         0.646600   
     12. B(C  11,C  10)                  1.3858         0.634612   
     13. B(C  12,C  11)                  1.3851         0.636173   
     14. B(C  13,C   0)                  1.3984         0.605742   
     15. B(C  13,C  12)                  1.3807         0.646438   
     16. B(H  14,C   1)                  1.0823         0.370444   
     17. B(H  15,C   2)                  1.0822         0.370525   
     18. B(H  16,C   4)                  1.0791         0.374805   
     19. B(H  17,C   5)                  1.0807         0.372643   
     20. B(H  18,C   6)                  1.0801         0.373504   
     21. B(H  19,C   7)                  1.0805         0.372822   
     22. B(H  20,C   8)                  1.0813         0.371796   
     23. B(H  21,C   9)                  1.0791         0.374814   
     24. B(H  22,C  10)                  1.0807         0.372654   
     25. B(H  23,C  11)                  1.0801         0.373423   
     26. B(H  24,C  12)                  1.0806         0.372786   
     27. B(H  25,C  13)                  1.0813         0.371813   
     28. A(C   1,C   0,C   9)          123.5288         0.415986   
     29. A(C   1,C   0,C  13)          118.6011         0.415739   
     30. A(C   9,C   0,C  13)          117.8701         0.430709   
     31. A(C   2,C   1,H  14)          119.3614         0.366215   
     32. A(C   0,C   1,C   2)          126.5499         0.431820   
     33. A(C   0,C   1,H  14)          114.0885         0.341827   
     34. A(C   3,C   2,H  15)          114.0622         0.341851   
     35. A(C   1,C   2,C   3)          126.6042         0.431836   
     36. A(C   1,C   2,H  15)          119.3336         0.366229   
     37. A(C   2,C   3,C   4)          123.5496         0.416004   
     38. A(C   2,C   3,C   8)          118.5776         0.415748   
     39. A(C   4,C   3,C   8)          117.8728         0.430707   
     40. A(C   3,C   4,C   5)          120.8443         0.435807   
     41. A(C   3,C   4,H  16)          120.0455         0.354115   
     42. A(C   5,C   4,H  16)          119.1102         0.357861   
     43. A(C   4,C   5,C   6)          120.4756         0.439218   
     44. A(C   4,C   5,H  17)          119.6854         0.357509   
     45. A(C   6,C   5,H  17)          119.8389         0.356372   
     46. A(C   5,C   6,C   7)          119.4956         0.437928   
     47. A(C   5,C   6,H  18)          120.2258         0.356512   
     48. A(C   7,C   6,H  18)          120.2787         0.356660   
     49. A(C   6,C   7,C   8)          120.0925         0.439407   
     50. A(C   6,C   7,H  19)          120.0288         0.356549   
     51. A(C   8,C   7,H  19)          119.8787         0.357534   
     52. A(C   7,C   8,H  20)          119.5992         0.357367   
     53. A(C   3,C   8,C   7)          121.2191         0.435530   
     54. A(C   3,C   8,H  20)          119.1816         0.353424   
     55. A(C   0,C   9,H  21)          120.0458         0.354114   
     56. A(C  10,C   9,H  21)          119.1038         0.357856   
     57. A(C   0,C   9,C  10)          120.8503         0.435795   
     58. A(C   9,C  10,C  11)          120.4742         0.439204   
     59. A(C   9,C  10,H  22)          119.6836         0.357505   
     60. A(C  11,C  10,H  22)          119.8422         0.356370   
     61. A(C  10,C  11,H  23)          120.2260         0.356495   
     62. A(C  12,C  11,H  23)          120.2832         0.356643   
     63. A(C  10,C  11,C  12)          119.4908         0.437918   
     64. A(C  11,C  12,C  13)          120.0983         0.439379   
     65. A(C  11,C  12,H  24)          120.0205         0.356540   
     66. A(C  13,C  12,H  24)          119.8813         0.357511   
     67. A(C   0,C  13,C  12)          121.2163         0.435513   
     68. A(C   0,C  13,H  25)          119.1872         0.353432   
     69. A(C  12,C  13,H  25)          119.5964         0.357352   
     70. D(C   2,C   1,C   0,C  13)   -178.3891         0.016934   
     71. D(C   2,C   1,C   0,C   9)      1.6395         0.016934   
     72. D(H  14,C   1,C   0,C  13)      1.4149         0.016934   
     73. D(H  14,C   1,C   0,C   9)   -178.5564         0.016934   
     74. D(H  15,C   2,C   1,C   0)      0.0436         0.039996   
     75. D(C   3,C   2,C   1,C   0)    180.0000         0.039996 C 
     76. D(C   3,C   2,C   1,H  14)      0.2052         0.039996   
     77. D(H  15,C   2,C   1,H  14)   -179.7511         0.039996   
     78. D(C   4,C   3,C   2,H  15)    179.8375         0.016941   
     79. D(C   4,C   3,C   2,C   1)     -0.1209         0.016941   
     80. D(C   8,C   3,C   2,H  15)     -0.1745         0.016941   
     81. D(C   8,C   3,C   2,C   1)    179.8671         0.016941   
     82. D(C   5,C   4,C   3,C   2)    179.9711         0.025503   
     83. D(C   5,C   4,C   3,C   8)     -0.0170         0.025503   
     84. D(H  16,C   4,C   3,C   2)     -0.0502         0.025503   
     85. D(H  16,C   4,C   3,C   8)    179.9617         0.025503   
     86. D(C   6,C   5,C   4,C   3)     -0.0164         0.029096   
     87. D(C   6,C   5,C   4,H  16)   -179.9953         0.029096   
     88. D(H  17,C   5,C   4,C   3)   -179.9809         0.029096   
     89. D(H  17,C   5,C   4,H  16)      0.0402         0.029096   
     90. D(C   7,C   6,C   5,C   4)      0.0397         0.027954   
     91. D(C   7,C   6,C   5,H  17)   -179.9959         0.027954   
     92. D(H  18,C   6,C   5,C   4)   -179.9439         0.027954   
     93. D(H  18,C   6,C   5,H  17)      0.0205         0.027954   
     94. D(C   8,C   7,C   6,C   5)     -0.0290         0.028100   
     95. D(C   8,C   7,C   6,H  18)    179.9545         0.028100   
     96. D(H  19,C   7,C   6,C   5)    179.9938         0.028100   
     97. D(H  19,C   7,C   6,H  18)     -0.0226         0.028100   
     98. D(C   7,C   8,C   3,C   2)   -179.9610         0.025317   
     99. D(C   7,C   8,C   3,C   4)      0.0276         0.025317   
    100. D(H  20,C   8,C   3,C   2)      0.0286         0.025317   
    101. D(H  20,C   8,C   3,C   4)   -179.9827         0.025317   
    102. D(C   3,C   8,C   7,C   6)     -0.0049         0.029092   
    103. D(C   3,C   8,C   7,H  19)    179.9723         0.029092   
    104. D(H  20,C   8,C   7,C   6)   -179.9945         0.029092   
    105. D(H  20,C   8,C   7,H  19)     -0.0173         0.029092   
    106. D(C  10,C   9,C   0,C   1)   -179.9092         0.025501   
    107. D(C  10,C   9,C   0,C  13)      0.1193         0.025501   
    108. D(H  21,C   9,C   0,C   1)      0.1892         0.025501   
    109. D(H  21,C   9,C   0,C  13)   -179.7823         0.025501   
    110. D(C  11,C  10,C   9,C   0)     -0.0235         0.029089   
    111. D(C  11,C  10,C   9,H  21)    179.8790         0.029089   
    112. D(H  22,C  10,C   9,C   0)   -179.9778         0.029089   
    113. D(H  22,C  10,C   9,H  21)     -0.0752         0.029089   
    114. D(C  12,C  11,C  10,C   9)     -0.0492         0.027950   
    115. D(C  12,C  11,C  10,H  22)    179.9049         0.027950   
    116. D(H  23,C  11,C  10,C   9)   -179.9937         0.027950   
    117. D(H  23,C  11,C  10,H  22)     -0.0396         0.027950   
    118. D(C  13,C  12,C  11,C  10)      0.0224         0.028097   
    119. D(C  13,C  12,C  11,H  23)    179.9669         0.028097   
    120. D(H  24,C  12,C  11,C  10)   -179.9328         0.028097   
    121. D(H  24,C  12,C  11,H  23)      0.0117         0.028097   
    122. D(C  12,C  13,C   0,C   1)    179.8804         0.025321   
    123. D(H  25,C  13,C  12,C  11)   -179.9830         0.029074   
    124. D(H  25,C  13,C   0,C   1)     -0.0592         0.025321   
    125. D(H  25,C  13,C   0,C   9)    179.9137         0.025321   
    126. D(C   0,C  13,C  12,C  11)      0.0776         0.029074   
    127. D(C  12,C  13,C   0,C   9)     -0.1467         0.025321   
    128. D(C   0,C  13,C  12,H  24)   -179.9671         0.029074   
    129. D(H  25,C  13,C  12,H  24)     -0.0278         0.029074   
    -----------------------------------------------------------------

Number of atoms                         .... 26
Number of degrees of freedom            .... 129


         *************************************************************
         *                GEOMETRY OPTIMIZATION CYCLE   1            *
         *************************************************************
---------------------------------
CARTESIAN COORDINATES (ANGSTROEM)
---------------------------------
  C      1.871402   -0.431818    0.167020
  C      0.429222   -0.516376    0.027250
  C     -0.424678    0.512104   -0.074835
  C     -1.866879    0.428921   -0.214632
  C     -2.569692   -0.777981   -0.264324
  C     -3.943773   -0.791966   -0.397947
  C     -4.653529    0.395009   -0.485191
  C     -3.973925    1.600976   -0.438238
  C     -2.599819    1.616493   -0.304856
  C      2.569667    0.776094    0.247276
  C      3.944045    0.792056    0.377890
  C      4.658633   -0.393991    0.432460
  C      3.983475   -1.600961    0.355943
  C      2.608996   -1.618452    0.225861
  H      0.046207   -1.528371    0.004469
  H     -0.040793    1.523788   -0.056080
  H     -2.039083   -1.715306   -0.198416
  H     -4.468399   -1.736070   -0.434055
  H     -5.728492    0.379374   -0.588737
  H     -4.518750    2.531682   -0.505615
  H     -2.077354    2.562511   -0.268968
  H      2.035158    1.712731    0.209010
  H      4.464905    1.736972    0.438630
  H      5.733749   -0.376827    0.534788
  H      4.532057   -2.530945    0.398730
  H      2.090141   -2.565300    0.167135

----------------------------
CARTESIAN COORDINATES (A.U.)
----------------------------
  NO LB      ZA    FRAG     MASS         X           Y           Z
   0 C     6.0000    0    12.011    3.536437   -0.816018    0.315622
   1 C     6.0000    0    12.011    0.811113   -0.975809    0.051496
   2 C     6.0000    0    12.011   -0.802525    0.967737   -0.141418
   3 C     6.0000    0    12.011   -3.527889    0.810544   -0.405595
   4 C     6.0000    0    12.011   -4.856014   -1.470171   -0.499499
   5 C     6.0000    0    12.011   -7.452651   -1.496598   -0.752012
   6 C     6.0000    0    12.011   -8.793895    0.746459   -0.916879
   7 C     6.0000    0    12.011   -7.509630    3.025407   -0.828150
   8 C     6.0000    0    12.011   -4.912946    3.054728   -0.576093
   9 C     6.0000    0    12.011    4.855966    1.466604    0.467283
  10 C     6.0000    0    12.011    7.453164    1.496768    0.714108
  11 C     6.0000    0    12.011    8.803541   -0.744535    0.817231
  12 C     6.0000    0    12.011    7.527677   -3.025377    0.672635
  13 C     6.0000    0    12.011    4.930289   -3.058431    0.426815
  14 H     1.0000    0     1.008    0.087320   -2.888203    0.008445
  15 H     1.0000    0     1.008   -0.077087    2.879543   -0.105976
  16 H     1.0000    0     1.008   -3.853308   -3.241458   -0.374952
  17 H     1.0000    0     1.008   -8.444051   -3.280696   -0.820245
  18 H     1.0000    0     1.008  -10.825280    0.716914   -1.112552
  19 H     1.0000    0     1.008   -8.539200    4.784185   -0.955475
  20 H     1.0000    0     1.008   -3.925630    4.842444   -0.508275
  21 H     1.0000    0     1.008    3.845892    3.236592    0.394972
  22 H     1.0000    0     1.008    8.437447    3.282402    0.828890
  23 H     1.0000    0     1.008   10.835215   -0.712099    1.010604
  24 H     1.0000    0     1.008    8.564346   -4.782793    0.753491
  25 H     1.0000    0     1.008    3.949793   -4.847714    0.315839

--------------------------------
INTERNAL COORDINATES (ANGSTROEM)
--------------------------------
 C      0   0   0     0.000000000000     0.00000000     0.00000000
 C      1   0   0     1.451401490128     0.00000000     0.00000000
 C      2   1   0     1.340648750939   126.54988553     0.00000000
 C      3   2   1     1.451345752309   126.60415129   179.94774713
 C      4   3   2     1.397508116961   123.54955392   359.89187052
 C      5   4   3     1.380633619695   120.84429955   179.97107999
 C      6   5   4     1.385739555838   120.47562860     0.00000000
 C      7   6   5     1.385071264497   119.49557748     0.03965465
 C      8   7   6     1.380651597556   120.09249546   359.97097487
 C      1   2   3     1.397521437997   123.52877921     1.65228698
 C     10   1   2     1.380662528267   120.85026917   180.09083210
 C     11  10   1     1.385756745313   120.47416506   359.97648646
 C     12  11  10     1.385088004286   119.49077157   359.95077085
 C     13  12  11     1.380731042164   120.09824954     0.00000000
 H      2   1   3     1.082290875213   114.08837762   179.77856379
 H      3   2   1     1.082231269163   119.33359173     0.00000000
 H      5   4   3     1.079105069951   120.04546310   359.94976053
 H      6   5   4     1.080679970931   119.68544557   180.01909397
 H      7   6   5     1.080051266027   120.22576215   180.05609887
 H      8   7   6     1.080549391800   120.02883349   179.99384346
 H      9   8   7     1.081299217479   119.59924208   180.00552900
 H     10   1   2     1.079098261358   120.04582376     0.18923044
 H     11  10   1     1.080671912302   119.68358900   180.02224300
 H     12  11  10     1.080110436933   120.22596140   180.00626851
 H     13  12  11     1.080575655326   120.02048422   180.06724192
 H     14  13  12     1.081286419189   119.59642013   180.01699616

---------------------------
INTERNAL COORDINATES (A.U.)
---------------------------
 C      0   0   0     0.000000000000     0.00000000     0.00000000
 C      1   0   0     2.742751326707     0.00000000     0.00000000
 C      2   1   0     2.533458981058   126.54988553     0.00000000
 C      3   2   1     2.742645997493   126.60415129   179.94774713
 C      4   3   2     2.640907610988   123.54955392   359.89187052
 C      5   4   3     2.609019432508   120.84429955   179.97107999
 C      6   5   4     2.618668253475   120.47562860     0.00000000
 C      7   6   5     2.617405365863   119.49557748     0.03965465
 C      8   7   6     2.609053405742   120.09249546   359.97097487
 C      1   2   3     2.640932784099   123.52877921     1.65228698
 C     10   1   2     2.609074061792   120.85026917   180.09083210
 C     11  10   1     2.618700736876   120.47416506   359.97648646
 C     12  11  10     2.617436999479   119.49077157   359.95077085
 C     13  12  11     2.609203534294   120.09824954     0.00000000
 H      2   1   3     2.045233351395   114.08837762   179.77856379
 H      3   2   1     2.045120712283   119.33359173     0.00000000
 H      5   4   3     2.039213051934   120.04546310   359.94976053
 H      6   5   4     2.042189183474   119.68544557   180.01909397
 H      7   6   5     2.041001103387   120.22576215   180.05609887
 H      8   7   6     2.041942424677   120.02883349   179.99384346
 H      9   8   7     2.043359389858   119.59924208   180.00552900
 H     10   1   2     2.039200185558   120.04582376     0.18923044
 H     11  10   1     2.042173954871   119.68358900   180.02224300
 H     12  11  10     2.041112920193   120.22596140   180.00626851
 H     13  12  11     2.041992055549   120.02048422   180.06724192
 H     14  13  12     2.043335204596   119.59642013   180.01699616

Calling /home/x_rompe/bin/ExtOptORCA-OpenQP/oqp_orca_wrapper stilbene_scan_EXT.extinp.tmp 1 6-31g*  ... 

MPI startup(): PMI server not found. Please set I_MPI_PMI_LIBRARY variable if it is not a singleton case.
input.charge=0
input.basis=6-31g*
input.functional=bhhlyp
input.method=tdhf
input.runtype=grad
input.system=stilbene_scan_EXT.xyz
input.system2=
input.d4=False
guess.type=huckel
guess.file=
guess.file2=
guess.save_mol=True
guess.continue_geom=False
scf.type=rohf
scf.maxit=100
scf.forced_attempt=1
scf.maxdiis=7
scf.diis_reset_mod=10
scf.diis_reset_conv=0.005
scf.diis_method_threshold=2.0
scf.diis_type=cdiis
scf.vdiis_cdiis_switch=0.3
scf.vdiis_vshift_switch=0.003
scf.vshift_cdiis_switch=0.3
scf.vshift=0.0
scf.mom=False
scf.mom_switch=0.003
scf.pfon=False
scf.pfon_start_temp=2000.0
scf.pfon_cooling_rate=50.0
scf.pfon_nsmear=5.0
scf.multiplicity=3
scf.conv=1.0e-6
scf.incremental=True
scf.init_scf=no
scf.init_it=0
scf.save_molden=True
dftgrid.hfscale=-1.0
dftgrid.cam_flag=False
dftgrid.cam_alpha=-1.0
dftgrid.cam_beta=-1.0
dftgrid.cam_mu=-1.0
dftgrid.rad_type=mhl
dftgrid.rad_npts=50
dftgrid.ang_npts=194
dftgrid.partfun=ssf
dftgrid.pruned=SG1
dftgrid.grid_ao_pruned=True
dftgrid.grid_ao_threshold=1.0e-15
dftgrid.grid_ao_sparsity_ratio=0.9
tdhf.type=mrsf
tdhf.maxit=50
tdhf.maxit_zv=50
tdhf.multiplicity=1
tdhf.conv=1.0e-6
tdhf.nstate=3
tdhf.zvconv=1.0e-6
tdhf.nvdav=50
tdhf.tlf=2
tdhf.hfscale=-1.0
tdhf.cam_alpha=-1.0
tdhf.cam_beta=-1.0
tdhf.cam_mu=-1.0
tdhf.spc_coco=-1.0
tdhf.spc_ovov=-1.0
tdhf.spc_coov=-1.0
tdhf.conf_threshold=5.0e-2
properties.scf_prop=el_mom,mulliken
properties.td_prop=False
properties.grad=1
properties.nac=
properties.soc=
properties.export=True
properties.title=
properties.back_door=False
optimize.lib=scipy
optimize.optimizer=bfgs
optimize.step_size=0.1
optimize.step_tol=1e-2
optimize.maxit=30
optimize.mep_maxit=10
optimize.rmsd_grad=1e-4
optimize.rmsd_step=1e-3
optimize.max_grad=3e-4
optimize.max_step=2e-3
optimize.istate=1
optimize.jstate=2
optimize.kstate=3
optimize.imult=1
optimize.jmult=3
optimize.energy_shift=1e-6
optimize.energy_gap=1e-5
optimize.meci_search=penalty
optimize.pen_sigma=1.0
optimize.pen_alpha=0.0
optimize.pen_incre=1.0
optimize.gap_weight=1.0
optimize.init_scf=False
dlfind.printl=2
dlfind.icoord=3
dlfind.iopt=3
dlfind.ims=0
hess.type=numerical
hess.state=0
hess.dx=0.01
hess.nproc=1
hess.read=False
hess.restart=False
hess.temperature=298.15
hess.clean=False
nac.type=numerical
nac.dt=1
nac.dx=0.0001
nac.bp=False
nac.nproc=1
nac.restart=False
nac.clean=False
nac.states=1 2
nac.align=reorder
basis_set.library=
tests.exception=False
functional=bhhlyp

External program completed successfully in 87.363 sec

-------------------------------------------------   --------------------
FINAL SINGLE POINT ENERGY (From external program)      -540.369459507560
-------------------------------------------------   --------------------


------------------
CARTESIAN GRADIENT
------------------

   1   C   :   -0.003693947    0.001510667   -0.000385726
   2   C   :    0.003311497   -0.000345186    0.000438412
   3   C   :   -0.003319314    0.000353758   -0.000396538
   4   C   :    0.003704331   -0.001514588    0.000401199
   5   C   :    0.000033697    0.001829301    0.000015292
   6   C   :    0.000288442    0.003361460   -0.000086647
   7   C   :    0.003586657   -0.001759973    0.000362895
   8   C   :    0.003275876   -0.001749226    0.000301599
   9   C   :   -0.002316225   -0.000546421   -0.000185926
  10   C   :   -0.000091632   -0.001846072    0.000001731
  11   C   :   -0.000231839   -0.003339729   -0.000017659
  12   C   :   -0.003594607    0.001749667   -0.000313733
  13   C   :   -0.003258893    0.001756394   -0.000336931
  14   C   :    0.002242292    0.000555759    0.000197886
  15   H   :    0.000339670   -0.002295552    0.000065778
  16   H   :   -0.000349437    0.002263705   -0.000075978
  17   H   :    0.000828050   -0.001309927    0.000080763
  18   H   :   -0.001086218   -0.001355076   -0.000072064
  19   H   :   -0.001554604   -0.000038869   -0.000118960
  20   H   :   -0.001007535    0.001362578   -0.000113425
  21   H   :    0.000506844    0.001641273    0.000020030
  22   H   :   -0.000833328    0.001313529   -0.000100304
  23   H   :    0.001074797    0.001353849    0.000121930
  24   H   :    0.001596505    0.000049813    0.000146560
  25   H   :    0.001032658   -0.001368428    0.000103367
  26   H   :   -0.000491237   -0.001636789   -0.000051640

Difference to translation invariance:
           :   -0.0000074995   -0.0000040811    0.0000019112

Difference to rotation invariance:
           :   -0.0000166132   -0.0003333300   -0.0000687529

Norm of the Cartesian gradient     ...    0.0139053709
RMS gradient                       ...    0.0015744732
MAX gradient                       ...    0.0037043310
------------------------------------------------------------------------------
                         ORCA GEOMETRY RELAXATION STEP
------------------------------------------------------------------------------

Reading the OPT-File                    .... done
Getting information on internals        .... done
Copying old internal coords+grads       .... done
Making the new internal coordinates     .... (2022 redundants) done
Validating the new internal coordinates .... (2022 redundants) done
Calculating the B-matrix                .... done
Calculating the G,G- and P matrices     .... done
Transforming gradient to internals      .... done
Projecting the internal gradient        .... done
Number of atoms                         ....  26
Number of internal coordinates          .... 129
Current Energy                          ....  -540.369459508 Eh
Current gradient norm                   ....     0.013905371 Eh/bohr
Maximum allowed component of the step   ....  0.300
Current trust radius                    ....  0.300
Evaluating the initial hessian          ....  (Almloef) done
Projecting the Hessian                  .... done
Forming the augmented Hessian           .... done
Diagonalizing the augmented Hessian     .... done
Last element of RFO vector              ....  0.999570432
Lowest eigenvalues of augmented Hessian:
 -0.000382197  0.016934121  0.016941128  0.022886862  0.022889256
Length of the computed step             ....  0.029320452
The final length of the internal step   ....  0.029320452
Converting the step to Cartesian space:
 Initial RMS(Int)=    0.0025815219
Transforming coordinates:
 Iter   0:  RMS(Cart)=    0.0125033161 RMS(Int)=    0.9581497527
Imposing constraints:
 Iter   0:  RMS(Cart)=    0.0000000550 RMS(Int)=    0.0000000744
CONVERGED
done
Storing new coordinates                 .... done

                                .--------------------.
          ----------------------|Geometry convergence|-------------------------
          Item                value                   Tolerance       Converged
          ---------------------------------------------------------------------
          RMS gradient        0.0011735803            0.0001000000      NO
          MAX gradient        0.0062760395            0.0003000000      NO
          RMS step            0.0025815219            0.0020000000      NO
          MAX step            0.0125744157            0.0040000000      NO
          ........................................................
          Max(Bonds)      0.0067      Max(Angles)    0.35
          Max(Dihed)        0.06      Max(Improp)    0.00
          ---------------------------------------------------------------------

The optimization has not yet converged - more geometry cycles are needed


    ---------------------------------------------------------------------------
                         Redundant Internal Coordinates
                            (Angstroem and degrees)

        Definition                    Value    dE/dq     Step     New-Value
    ----------------------------------------------------------------------------
     1. B(C   1,C   0)                1.4514 -0.006261  0.0066    1.4580   
     2. B(C   2,C   1)                1.3406  0.000283 -0.0002    1.3404   
     3. B(C   3,C   2)                1.4513 -0.006276  0.0067    1.4580   
     4. B(C   4,C   3)                1.3975 -0.001461  0.0012    1.3988   
     5. B(C   5,C   4)                1.3806 -0.000836  0.0007    1.3813   
     6. B(C   6,C   5)                1.3857 -0.002414  0.0020    1.3878   
     7. B(C   7,C   6)                1.3851 -0.000223  0.0002    1.3853   
     8. B(C   8,C   3)                1.3985  0.000169 -0.0002    1.3983   
     9. B(C   8,C   7)                1.3807 -0.002675  0.0022    1.3828   
    10. B(C   9,C   0)                1.3975 -0.001465  0.0012    1.3988   
    11. B(C  10,C   9)                1.3807 -0.000792  0.0006    1.3813   
    12. B(C  11,C  10)                1.3858 -0.002408  0.0020    1.3878   
    13. B(C  12,C  11)                1.3851 -0.000198  0.0002    1.3853   
    14. B(C  13,C   0)                1.3984  0.000159 -0.0002    1.3983   
    15. B(C  13,C  12)                1.3807 -0.002597  0.0021    1.3829   
    16. B(H  14,C   1)                1.0823  0.002025 -0.0029    1.0794   
    17. B(H  15,C   2)                1.0822  0.001991 -0.0028    1.0794   
    18. B(H  16,C   4)                1.0791  0.001550 -0.0022    1.0769   
    19. B(H  17,C   5)                1.0807  0.001714 -0.0024    1.0782   
    20. B(H  18,C   6)                1.0801  0.001559 -0.0022    1.0778   
    21. B(H  19,C   7)                1.0805  0.001688 -0.0024    1.0782   
    22. B(H  20,C   8)                1.0813  0.001681 -0.0024    1.0789   
    23. B(H  21,C   9)                1.0791  0.001557 -0.0022    1.0769   
    24. B(H  22,C  10)                1.0807  0.001709 -0.0024    1.0782   
    25. B(H  23,C  11)                1.0801  0.001604 -0.0023    1.0778   
    26. B(H  24,C  12)                1.0806  0.001706 -0.0024    1.0782   
    27. B(H  25,C  13)                1.0813  0.001671 -0.0024    1.0789   
    28. A(C   1,C   0,C   9)          123.53 -0.001077    0.15    123.68   
    29. A(C   1,C   0,C  13)          118.60  0.000030   -0.00    118.60   
    30. A(C   9,C   0,C  13)          117.87  0.001047   -0.15    117.72   
    31. A(C   2,C   1,H  14)          119.36  0.002348   -0.35    119.01   
    32. A(C   0,C   1,C   2)          126.55 -0.002373    0.33    126.88   
    33. A(C   0,C   1,H  14)          114.09  0.000025    0.02    114.11   
    34. A(C   3,C   2,H  15)          114.06 -0.000066    0.03    114.09   
    35. A(C   1,C   2,C   3)          126.60 -0.002190    0.31    126.91   
    36. A(C   1,C   2,H  15)          119.33  0.002256   -0.33    119.00   
    37. A(C   2,C   3,C   4)          123.55 -0.000981    0.14    123.69   
    38. A(C   2,C   3,C   8)          118.58 -0.000070    0.01    118.59   
    39. A(C   4,C   3,C   8)          117.87  0.001050   -0.15    117.72   
    40. A(C   3,C   4,C   5)          120.84 -0.000666    0.09    120.93   
    41. A(C   3,C   4,H  16)          120.05  0.000257   -0.03    120.01   
    42. A(C   5,C   4,H  16)          119.11  0.000409   -0.06    119.05   
    43. A(C   4,C   5,C   6)          120.48 -0.000222    0.03    120.51   
    44. A(C   4,C   5,H  17)          119.69  0.000408   -0.06    119.62   
    45. A(C   6,C   5,H  17)          119.84 -0.000186    0.03    119.87   
    46. A(C   5,C   6,C   7)          119.50  0.000775   -0.10    119.40   
    47. A(C   5,C   6,H  18)          120.23 -0.000405    0.05    120.28   
    48. A(C   7,C   6,H  18)          120.28 -0.000370    0.05    120.33   
    49. A(C   6,C   7,C   8)          120.09  0.000051   -0.00    120.09   
    50. A(C   6,C   7,H  19)          120.03 -0.000211    0.03    120.06   
    51. A(C   8,C   7,H  19)          119.88  0.000160   -0.03    119.85   
    52. A(C   7,C   8,H  20)          119.60  0.000135   -0.01    119.59   
    53. A(C   3,C   8,C   7)          121.22 -0.000988    0.13    121.35   
    54. A(C   3,C   8,H  20)          119.18  0.000853   -0.12    119.06   
    55. A(C   0,C   9,H  21)          120.05  0.000242   -0.03    120.02   
    56. A(C  10,C   9,H  21)          119.10  0.000397   -0.05    119.05   
    57. A(C   0,C   9,C  10)          120.85 -0.000639    0.08    120.93   
    58. A(C   9,C  10,C  11)          120.47 -0.000229    0.04    120.51   
    59. A(C   9,C  10,H  22)          119.68  0.000409   -0.06    119.62   
    60. A(C  11,C  10,H  22)          119.84 -0.000180    0.03    119.87   
    61. A(C  10,C  11,H  23)          120.23 -0.000404    0.05    120.28   
    62. A(C  12,C  11,H  23)          120.28 -0.000353    0.04    120.33   
    63. A(C  10,C  11,C  12)          119.49  0.000756   -0.10    119.39   
    64. A(C  11,C  12,C  13)          120.10  0.000070   -0.01    120.09   
    65. A(C  11,C  12,H  24)          120.02 -0.000236    0.04    120.06   
    66. A(C  13,C  12,H  24)          119.88  0.000167   -0.03    119.85   
    67. A(C   0,C  13,C  12)          121.22 -0.001005    0.14    121.35   
    68. A(C   0,C  13,H  25)          119.19  0.000868   -0.13    119.06   
    69. A(C  12,C  13,H  25)          119.60  0.000137   -0.01    119.59   
    70. D(C   2,C   1,C   0,C  13)   -178.39  0.000023   -0.06   -178.45   
    71. D(C   2,C   1,C   0,C   9)      1.64  0.000022   -0.06      1.58   
    72. D(H  14,C   1,C   0,C  13)      1.41  0.000006   -0.03      1.38   
    73. D(H  14,C   1,C   0,C   9)   -178.56  0.000004   -0.03   -178.59   
    74. D(H  15,C   2,C   1,C   0)      0.04 -0.000019    0.03      0.07   
    75. D(C   3,C   2,C   1,C   0)    180.00 -0.000010   -0.00    180.00 C 
    76. D(C   3,C   2,C   1,H  14)      0.21  0.000013   -0.03      0.17   
    77. D(H  15,C   2,C   1,H  14)   -179.75  0.000004   -0.00   -179.75   
    78. D(C   4,C   3,C   2,H  15)    179.84 -0.000010    0.03    179.87   
    79. D(C   4,C   3,C   2,C   1)     -0.12 -0.000020    0.06     -0.06   
    80. D(C   8,C   3,C   2,H  15)     -0.17 -0.000008    0.03     -0.14   
    81. D(C   8,C   3,C   2,C   1)    179.87 -0.000018    0.06    179.92   
    82. D(C   5,C   4,C   3,C   2)    179.97  0.000003   -0.01    179.96   
    83. D(C   5,C   4,C   3,C   8)     -0.02  0.000002   -0.00     -0.02   
    84. D(H  16,C   4,C   3,C   2)     -0.05 -0.000006    0.01     -0.04   
    85. D(H  16,C   4,C   3,C   8)    179.96 -0.000008    0.02    179.98   
    86. D(C   6,C   5,C   4,C   3)     -0.02 -0.000010    0.02      0.00   
    87. D(C   6,C   5,C   4,H  16)   -180.00 -0.000000   -0.00   -180.00   
    88. D(H  17,C   5,C   4,C   3)   -179.98  0.000009   -0.02   -180.00   
    89. D(H  17,C   5,C   4,H  16)      0.04  0.000019   -0.04      0.00   
    90. D(C   7,C   6,C   5,C   4)      0.04  0.000015   -0.03      0.01   
    91. D(C   7,C   6,C   5,H  17)   -180.00 -0.000004    0.01   -179.99   
    92. D(H  18,C   6,C   5,C   4)   -179.94  0.000024   -0.05   -179.99   
    93. D(H  18,C   6,C   5,H  17)      0.02  0.000006   -0.01      0.01   
    94. D(C   8,C   7,C   6,C   5)     -0.03 -0.000013    0.03     -0.00   
    95. D(C   8,C   7,C   6,H  18)    179.95 -0.000022    0.04    180.00   
    96. D(H  19,C   7,C   6,C   5)    179.99  0.000002   -0.00    179.99   
    97. D(H  19,C   7,C   6,H  18)     -0.02 -0.000007    0.02     -0.01   
    98. D(C   7,C   8,C   3,C   2)   -179.96 -0.000001    0.00   -179.96   
    99. D(C   7,C   8,C   3,C   4)      0.03  0.000000   -0.00      0.03   
   100. D(H  20,C   8,C   3,C   2)      0.03 -0.000001    0.00      0.03   
   101. D(H  20,C   8,C   3,C   4)   -179.98  0.000000   -0.00   -179.98   
   102. D(C   3,C   8,C   7,C   6)     -0.00  0.000005   -0.01     -0.02   
   103. D(C   3,C   8,C   7,H  19)    179.97 -0.000009    0.02    179.99   
   104. D(H  20,C   8,C   7,C   6)   -179.99  0.000005   -0.01   -180.00   
   105. D(H  20,C   8,C   7,H  19)     -0.02 -0.000010    0.02      0.00   
   106. D(C  10,C   9,C   0,C   1)   -179.91 -0.000009    0.02   -179.89   
   107. D(C  10,C   9,C   0,C  13)      0.12 -0.000010    0.02      0.14   
   108. D(H  21,C   9,C   0,C   1)      0.19 -0.000017    0.04      0.23   
   109. D(H  21,C   9,C   0,C  13)   -179.78 -0.000019    0.04   -179.74   
   110. D(C  11,C  10,C   9,C   0)     -0.02  0.000015   -0.03     -0.05   
   111. D(C  11,C  10,C   9,H  21)    179.88  0.000024   -0.05    179.83   
   112. D(H  22,C  10,C   9,C   0)   -179.98  0.000002   -0.00   -179.98   
   113. D(H  22,C  10,C   9,H  21)     -0.08  0.000010   -0.02     -0.10   
   114. D(C  12,C  11,C  10,C   9)     -0.05 -0.000007    0.01     -0.04   
   115. D(C  12,C  11,C  10,H  22)    179.90  0.000007   -0.01    179.89   
   116. D(H  23,C  11,C  10,C   9)   -179.99 -0.000010    0.02   -179.97   
   117. D(H  23,C  11,C  10,H  22)     -0.04  0.000003   -0.01     -0.05   
   118. D(C  13,C  12,C  11,C  10)      0.02 -0.000007    0.01      0.03   
   119. D(C  13,C  12,C  11,H  23)    179.97 -0.000003    0.01    179.97   
   120. D(H  24,C  12,C  11,C  10)   -179.93  0.000008   -0.02   -179.95   
   121. D(H  24,C  12,C  11,H  23)      0.01  0.000012   -0.03     -0.01   
   122. D(C  12,C  13,C   0,C   1)    179.88 -0.000004    0.01    179.89   
   123. D(H  25,C  13,C  12,C  11)   -179.98  0.000012   -0.02   -180.01   
   124. D(H  25,C  13,C   0,C   1)     -0.06 -0.000005    0.01     -0.05   
   125. D(H  25,C  13,C   0,C   9)    179.91 -0.000004    0.01    179.92   
   126. D(C   0,C  13,C  12,C  11)      0.08  0.000010   -0.02      0.06   
   127. D(C  12,C  13,C   0,C   9)     -0.15 -0.000003    0.00     -0.14   
   128. D(C   0,C  13,C  12,H  24)   -179.97 -0.000005    0.01   -179.96   
   129. D(H  25,C  13,C  12,H  24)     -0.03 -0.000003    0.01     -0.02   
    ----------------------------------------------------------------------------

Geometry step timings:
Preparation and reading OPT file:      0.000 s ( 5.689 %)
Internal coordinates            :      0.000 s ( 0.873 %)
B/P matrices and projection     :      0.003 s (38.486 %)
Hessian update/contruction      :      0.001 s ( 9.151 %)
Making the step                 :      0.001 s (18.814 %)
Converting the step to Cartesian:      0.000 s ( 3.477 %)
Storing new data                :      0.000 s ( 0.707 %)
Checking convergence            :      0.000 s ( 0.181 %)
Final printing                  :      0.001 s (22.321 %)
Total time                      :      0.007 s

Time for energy+gradient        :     87.370 s
Time for complete geometry iter :     88.189 s

         *************************************************************
         *                GEOMETRY OPTIMIZATION CYCLE   2            *
         *************************************************************
---------------------------------
CARTESIAN COORDINATES (ANGSTROEM)
---------------------------------
  C      1.880730   -0.428945    0.167661
  C      0.431937   -0.513243    0.027036
  C     -0.427378    0.510503   -0.074562
  C     -1.876171    0.426929   -0.215200
  C     -2.582497   -0.779350   -0.265240
  C     -3.957264   -0.792138   -0.398995
  C     -4.667691    0.396773   -0.486788
  C     -3.985570    1.601542   -0.439346
  C     -2.609275    1.614183   -0.305569
  C      2.583322    0.777873    0.248381
  C      3.958387    0.791620    0.378877
  C      4.672807   -0.396885    0.433804
  C      3.994275   -1.602177    0.357279
  C      2.617669   -1.615784    0.226669
  H      0.049255   -1.522263    0.003734
  H     -0.044036    1.519344   -0.055257
  H     -2.054720   -1.715754   -0.199257
  H     -4.480443   -1.734257   -0.435283
  H     -5.740394    0.382454   -0.590965
  H     -4.526757    2.531590   -0.506768
  H     -2.086134    2.557088   -0.269553
  H      2.052239    1.713964    0.210917
  H      4.478527    1.734166    0.439534
  H      5.745676   -0.381832    0.536098
  H      4.538548   -2.531903    0.399681
  H      2.097449   -2.559150    0.167680

----------------------------
CARTESIAN COORDINATES (A.U.)
----------------------------
  NO LB      ZA    FRAG     MASS         X           Y           Z
   0 C     6.0000    0    12.011    3.554065   -0.810588    0.316834
   1 C     6.0000    0    12.011    0.816243   -0.969889    0.051090
   2 C     6.0000    0    12.011   -0.807628    0.964712   -0.140902
   3 C     6.0000    0    12.011   -3.545449    0.806778   -0.406669
   4 C     6.0000    0    12.011   -4.880212   -1.472758   -0.501232
   5 C     6.0000    0    12.011   -7.478145   -1.496924   -0.753992
   6 C     6.0000    0    12.011   -8.820657    0.749793   -0.919896
   7 C     6.0000    0    12.011   -7.531636    3.026475   -0.830244
   8 C     6.0000    0    12.011   -4.930814    3.050363   -0.577442
   9 C     6.0000    0    12.011    4.881771    1.469966    0.469373
  10 C     6.0000    0    12.011    7.480268    1.495946    0.715974
  11 C     6.0000    0    12.011    8.830325   -0.750004    0.819770
  12 C     6.0000    0    12.011    7.548085   -3.027676    0.675160
  13 C     6.0000    0    12.011    4.946677   -3.053389    0.428343
  14 H     1.0000    0     1.008    0.093079   -2.876659    0.007056
  15 H     1.0000    0     1.008   -0.083217    2.871145   -0.104420
  16 H     1.0000    0     1.008   -3.882858   -3.242305   -0.376540
  17 H     1.0000    0     1.008   -8.466810   -3.277271   -0.822565
  18 H     1.0000    0     1.008  -10.847772    0.722734   -1.116762
  19 H     1.0000    0     1.008   -8.554332    4.784011   -0.957652
  20 H     1.0000    0     1.008   -3.942223    4.832197   -0.509382
  21 H     1.0000    0     1.008    3.878169    3.238922    0.398575
  22 H     1.0000    0     1.008    8.463190    3.277099    0.830598
  23 H     1.0000    0     1.008   10.857753   -0.721559    1.013078
  24 H     1.0000    0     1.008    8.576612   -4.784604    0.755287
  25 H     1.0000    0     1.008    3.963604   -4.836092    0.316870

--------------------------------
INTERNAL COORDINATES (ANGSTROEM)
--------------------------------
 C      0   0   0     0.000000000000     0.00000000     0.00000000
 C      1   0   0     1.458041089908     0.00000000     0.00000000
 C      2   1   0     1.340448609656   126.88089410     0.00000000
 C      3   2   1     1.457999943822   126.90929427   179.99999548
 C      4   3   2     1.398752699499   123.68758375   359.94027295
 C      5   4   3     1.381317789632   120.93207284   179.96370204
 C      6   5   4     1.387776323869   120.50970630     0.00000000
 C      7   6   5     1.385281778511   119.39511871     0.00000000
 C      8   7   6     1.382839692137   120.08861180     0.00000000
 C      1   2   3     1.398770711641   123.68002771     1.58105388
 C     10   1   2     1.381311603602   120.93461202   180.10888624
 C     11  10   1     1.387788699046   120.50924930   359.94647040
 C     12  11  10     1.385276701585   119.39275240   359.96350903
 C     13  12  11     1.382854840606   120.09148603     0.03490029
 H      2   1   3     1.079401792993   114.10507561   179.83378423
 H      3   2   1     1.079390604928   118.99860536     0.07199267
 H      5   4   3     1.076918629730   120.01353674   359.96236332
 H      6   5   4     1.078249075295   119.62082326   180.00127199
 H      7   6   5     1.077844796233   120.27882371   180.00747003
 H      8   7   6     1.078155330851   120.06046504   179.99020221
 H      9   8   7     1.078908504079   119.59085048   179.99568669
 H     10   1   2     1.076902737700   120.01589223     0.22614960
 H     11  10   1     1.078247306195   119.61879729   180.01967852
 H     12  11  10     1.077839617360   120.27906285   180.02640200
 H     13  12  11     1.078156661922   120.05616709   180.04948022
 H     14  13  12     1.078910312818   119.58801323   179.99249548

---------------------------
INTERNAL COORDINATES (A.U.)
---------------------------
 C      0   0   0     0.000000000000     0.00000000     0.00000000
 C      1   0   0     2.755298351930     0.00000000     0.00000000
 C      2   1   0     2.533080768846   126.88089410     0.00000000
 C      3   2   1     2.755220597097   126.90929427   179.99999548
 C      4   3   2     2.643259531136   123.68758375   359.94027295
 C      5   4   3     2.610312326317   120.93207284   179.96370204
 C      6   5   4     2.622517187252   120.50970630     0.00000000
 C      7   6   5     2.617803179697   119.39511871     0.00000000
 C      8   7   6     2.613188305255   120.08861180     0.00000000
 C      1   2   3     2.643293569151   123.68002771     1.58105388
 C     10   1   2     2.610300636416   120.93461202   180.10888624
 C     11  10   1     2.622540572948   120.50924930   359.94647040
 C     12  11  10     2.617793585698   119.39275240   359.96350903
 C     13  12  11     2.613216931713   120.09148603     0.03490029
 H      2   1   3     2.039773777221   114.10507561   179.83378423
 H      3   2   1     2.039752634841   118.99860536     0.07199267
 H      5   4   3     2.035081278707   120.01353674   359.96236332
 H      6   5   4     2.037595456461   119.62082326   180.00127199
 H      7   6   5     2.036831479752   120.27882371   180.00747003
 H      8   7   6     2.037418305136   120.06046504   179.99020221
 H      9   8   7     2.038841596269   119.59085048   179.99568669
 H     10   1   2     2.035051247123   120.01589223     0.22614960
 H     11  10   1     2.037592113347   119.61879729   180.01967852
 H     12  11  10     2.036821693101   120.27906285   180.02640200
 H     13  12  11     2.037420820496   120.05616709   180.04948022
 H     14  13  12     2.038845014290   119.58801323   179.99249548

Calling /home/x_rompe/bin/ExtOptORCA-OpenQP/oqp_orca_wrapper stilbene_scan_EXT.extinp.tmp 1 6-31g*  > stilbene_scan.lastext ...  done

External program completed successfully in 77.929 sec
------------------------------------------------------------------------------
                         ORCA GEOMETRY RELAXATION STEP
------------------------------------------------------------------------------

Reading the OPT-File                    .... done
Getting information on internals        .... done
Copying old internal coords+grads       .... done
Making the new internal coordinates     .... (2022 redundants) done
Validating the new internal coordinates .... (2022 redundants) done
Calculating the B-matrix                .... done
Calculating the G,G- and P matrices     .... done
Transforming gradient to internals      .... done
Projecting the internal gradient        .... done
Number of atoms                         ....  26
Number of internal coordinates          .... 129
Current Energy                          ....  -540.369675792 Eh
Current gradient norm                   ....     0.003961815 Eh/bohr
Maximum allowed component of the step   ....  0.300
Current trust radius                    ....  0.300
Updating the Hessian (BFGS)             .... done
Forming the augmented Hessian           .... done
Diagonalizing the augmented Hessian     .... done
Last element of RFO vector              ....  0.999969325
Lowest eigenvalues of augmented Hessian:
 -0.000019940  0.016926417  0.016939184  0.022886876  0.022889258
Length of the computed step             ....  0.007832775
The final length of the internal step   ....  0.007832775
Converting the step to Cartesian space:
 Initial RMS(Int)=    0.0006896374
Transforming coordinates:
 Iter   0:  RMS(Cart)=    0.0017832207 RMS(Int)=    0.9581611182
Imposing constraints:
 Iter   0:  RMS(Cart)=    0.0000001333 RMS(Int)=    0.0000001813
CONVERGED
done
Storing new coordinates                 .... done
The predicted energy change is          ....    -0.000009971
Previously predicted energy change      ....    -0.000191263
Actually observed energy change         ....    -0.000216284
Ratio of predicted to observed change   ....     1.130821884
New trust radius                        ....     0.450000000

                                .--------------------.
          ----------------------|Geometry convergence|-------------------------
          Item                value                   Tolerance       Converged
          ---------------------------------------------------------------------
          Energy change      -0.0002162840            0.0000050000      NO
          RMS gradient        0.0002532536            0.0001000000      NO
          MAX gradient        0.0010330546            0.0003000000      NO
          RMS step            0.0006896374            0.0020000000      YES
          MAX step            0.0024464411            0.0040000000      YES
          ........................................................
          Max(Bonds)      0.0013      Max(Angles)    0.13
          Max(Dihed)        0.08      Max(Improp)    0.00
          ---------------------------------------------------------------------

The optimization has not yet converged - more geometry cycles are needed


    ---------------------------------------------------------------------------
                         Redundant Internal Coordinates
                            (Angstroem and degrees)

        Definition                    Value    dE/dq     Step     New-Value
    ----------------------------------------------------------------------------
     1. B(C   1,C   0)                1.4580 -0.000846  0.0013    1.4593   
     2. B(C   2,C   1)                1.3404  0.001033 -0.0008    1.3396   
     3. B(C   3,C   2)                1.4580 -0.000875  0.0013    1.4593   
     4. B(C   4,C   3)                1.3988 -0.000117  0.0001    1.3989   
     5. B(C   5,C   4)                1.3813  0.000212 -0.0002    1.3811   
     6. B(C   6,C   5)                1.3878 -0.000817  0.0009    1.3886   
     7. B(C   7,C   6)                1.3853  0.000095 -0.0001    1.3852   
     8. B(C   8,C   3)                1.3983  0.000702 -0.0007    1.3976   
     9. B(C   8,C   7)                1.3828 -0.000680  0.0007    1.3836   
    10. B(C   9,C   0)                1.3988 -0.000105  0.0001    1.3989   
    11. B(C  10,C   9)                1.3813  0.000214 -0.0002    1.3811   
    12. B(C  11,C  10)                1.3878 -0.000815  0.0009    1.3887   
    13. B(C  12,C  11)                1.3853  0.000092 -0.0001    1.3852   
    14. B(C  13,C   0)                1.3983  0.000691 -0.0007    1.3976   
    15. B(C  13,C  12)                1.3829 -0.000666  0.0007    1.3836   
    16. B(H  14,C   1)                1.0794 -0.000246  0.0003    1.0797   
    17. B(H  15,C   2)                1.0794 -0.000253  0.0003    1.0797   
    18. B(H  16,C   4)                1.0769 -0.000198  0.0002    1.0772   
    19. B(H  17,C   5)                1.0782 -0.000012 -0.0001    1.0782   
    20. B(H  18,C   6)                1.0778  0.000006 -0.0001    1.0778   
    21. B(H  19,C   7)                1.0782 -0.000004 -0.0001    1.0781   
    22. B(H  20,C   8)                1.0789 -0.000062  0.0000    1.0789   
    23. B(H  21,C   9)                1.0769 -0.000207  0.0003    1.0772   
    24. B(H  22,C  10)                1.0782 -0.000012 -0.0001    1.0782   
    25. B(H  23,C  11)                1.0778  0.000004 -0.0001    1.0778   
    26. B(H  24,C  12)                1.0782 -0.000005 -0.0001    1.0781   
    27. B(H  25,C  13)                1.0789 -0.000062  0.0000    1.0789   
    28. A(C   1,C   0,C   9)          123.68  0.000139   -0.01    123.67   
    29. A(C   1,C   0,C  13)          118.60 -0.000074    0.01    118.61   
    30. A(C   9,C   0,C  13)          117.72 -0.000066   -0.00    117.72   
    31. A(C   2,C   1,H  14)          119.01  0.000692   -0.13    118.88   
    32. A(C   0,C   1,C   2)          126.88 -0.000382    0.07    126.95   
    33. A(C   0,C   1,H  14)          114.11 -0.000311    0.06    114.17   
    34. A(C   3,C   2,H  15)          114.09 -0.000345    0.07    114.16   
    35. A(C   1,C   2,C   3)          126.91 -0.000319    0.06    126.97   
    36. A(C   1,C   2,H  15)          119.00  0.000664   -0.13    118.87   
    37. A(C   2,C   3,C   4)          123.69  0.000153   -0.02    123.67   
    38. A(C   2,C   3,C   8)          118.59 -0.000096    0.02    118.61   
    39. A(C   4,C   3,C   8)          117.72 -0.000056   -0.00    117.72   
    40. A(C   3,C   4,C   5)          120.93 -0.000076    0.01    120.94   
    41. A(C   3,C   4,H  16)          120.01  0.000044   -0.01    120.01   
    42. A(C   5,C   4,H  16)          119.05  0.000032   -0.01    119.05   
    43. A(C   4,C   5,C   6)          120.51 -0.000025    0.01    120.52   
    44. A(C   4,C   5,H  17)          119.62  0.000227   -0.04    119.58   
    45. A(C   6,C   5,H  17)          119.87 -0.000202    0.04    119.91   
    46. A(C   5,C   6,C   7)          119.40  0.000255   -0.04    119.36   
    47. A(C   5,C   6,H  18)          120.28 -0.000086    0.01    120.29   
    48. A(C   7,C   6,H  18)          120.33 -0.000169    0.03    120.35   
    49. A(C   6,C   7,C   8)          120.09  0.000040   -0.00    120.09   
    50. A(C   6,C   7,H  19)          120.06 -0.000249    0.04    120.10   
    51. A(C   8,C   7,H  19)          119.85  0.000210   -0.04    119.81   
    52. A(C   7,C   8,H  20)          119.59 -0.000033    0.01    119.60   
    53. A(C   3,C   8,C   7)          121.35 -0.000138    0.02    121.38   
    54. A(C   3,C   8,H  20)          119.06  0.000171   -0.03    119.02   
    55. A(C   0,C   9,H  21)          120.02  0.000046   -0.01    120.01   
    56. A(C  10,C   9,H  21)          119.05  0.000016   -0.00    119.05   
    57. A(C   0,C   9,C  10)          120.93 -0.000062    0.01    120.94   
    58. A(C   9,C  10,C  11)          120.51 -0.000030    0.01    120.52   
    59. A(C   9,C  10,H  22)          119.62  0.000226   -0.04    119.57   
    60. A(C  11,C  10,H  22)          119.87 -0.000196    0.04    119.91   
    61. A(C  10,C  11,H  23)          120.28 -0.000086    0.01    120.29   
    62. A(C  12,C  11,H  23)          120.33 -0.000162    0.02    120.35   
    63. A(C  10,C  11,C  12)          119.39  0.000248   -0.04    119.36   
    64. A(C  11,C  12,C  13)          120.09  0.000052   -0.00    120.09   
    65. A(C  11,C  12,H  24)          120.06 -0.000264    0.05    120.10   
    66. A(C  13,C  12,H  24)          119.85  0.000212   -0.04    119.81   
    67. A(C   0,C  13,C  12)          121.35 -0.000142    0.02    121.38   
    68. A(C   0,C  13,H  25)          119.06  0.000179   -0.03    119.03   
    69. A(C  12,C  13,H  25)          119.59 -0.000037    0.01    119.60   
    70. D(C   2,C   1,C   0,C  13)   -178.45  0.000022   -0.07   -178.52   
    71. D(C   2,C   1,C   0,C   9)      1.58  0.000025   -0.08      1.50   
    72. D(H  14,C   1,C   0,C  13)      1.38  0.000011   -0.06      1.33   
    73. D(H  14,C   1,C   0,C   9)   -178.59  0.000014   -0.07   -178.65   
    74. D(H  15,C   2,C   1,C   0)      0.07 -0.000006    0.01      0.08   
    75. D(C   3,C   2,C   1,C   0)    180.00 -0.000009    0.00    180.00 C 
    76. D(C   3,C   2,C   1,H  14)      0.17  0.000004   -0.02      0.16   
    77. D(H  15,C   2,C   1,H  14)   -179.75  0.000007   -0.01   -179.77   
    78. D(C   4,C   3,C   2,H  15)    179.87 -0.000015    0.05    179.92   
    79. D(C   4,C   3,C   2,C   1)     -0.06 -0.000013    0.06     -0.00   
    80. D(C   8,C   3,C   2,H  15)     -0.14 -0.000014    0.05     -0.10   
    81. D(C   8,C   3,C   2,C   1)    179.92 -0.000012    0.06    179.98   
    82. D(C   5,C   4,C   3,C   2)    179.96 -0.000002    0.00    179.97   
    83. D(C   5,C   4,C   3,C   8)     -0.02 -0.000003    0.01     -0.01   
    84. D(H  16,C   4,C   3,C   2)     -0.04 -0.000005    0.01     -0.02   
    85. D(H  16,C   4,C   3,C   8)    179.98 -0.000006    0.01    179.99   
    86. D(C   6,C   5,C   4,C   3)      0.00  0.000001   -0.00      0.00   
    87. D(C   6,C   5,C   4,H  16)   -180.00  0.000005   -0.01   -180.01   
    88. D(H  17,C   5,C   4,C   3)   -180.00  0.000000   -0.00   -180.00   
    89. D(H  17,C   5,C   4,H  16)      0.00  0.000004   -0.01     -0.01   
    90. D(C   7,C   6,C   5,C   4)      0.01  0.000000   -0.00      0.01   
    91. D(C   7,C   6,C   5,H  17)   -179.99  0.000001   -0.00   -179.99   
    92. D(H  18,C   6,C   5,C   4)   -179.99  0.000002   -0.01   -180.00   
    93. D(H  18,C   6,C   5,H  17)      0.01  0.000003   -0.01      0.00   
    94. D(C   8,C   7,C   6,C   5)     -0.00  0.000000    0.00     -0.00   
    95. D(C   8,C   7,C   6,H  18)    180.00 -0.000002    0.01    180.00   
    96. D(H  19,C   7,C   6,C   5)    179.99 -0.000001    0.00    179.99   
    97. D(H  19,C   7,C   6,H  18)     -0.01 -0.000003    0.01     -0.00   
    98. D(C   7,C   8,C   3,C   2)   -179.96  0.000002   -0.01   -179.96   
    99. D(C   7,C   8,C   3,C   4)      0.03  0.000003   -0.01      0.02   
   100. D(H  20,C   8,C   3,C   2)      0.03  0.000002   -0.00      0.03   
   101. D(H  20,C   8,C   3,C   4)   -179.98  0.000002   -0.01   -179.99   
   102. D(C   3,C   8,C   7,C   6)     -0.02 -0.000001    0.00     -0.01   
   103. D(C   3,C   8,C   7,H  19)    179.99 -0.000001    0.00    179.99   
   104. D(H  20,C   8,C   7,C   6)    180.00 -0.000001    0.00    180.00   
   105. D(H  20,C   8,C   7,H  19)      0.00 -0.000000    0.00      0.00   
   106. D(C  10,C   9,C   0,C   1)   -179.89  0.000001   -0.00   -179.89   
   107. D(C  10,C   9,C   0,C  13)      0.14  0.000004   -0.01      0.13   
   108. D(H  21,C   9,C   0,C   1)      0.23 -0.000000    0.00      0.23   
   109. D(H  21,C   9,C   0,C  13)   -179.74  0.000003   -0.01   -179.75   
   110. D(C  11,C  10,C   9,C   0)     -0.05 -0.000002    0.00     -0.05   
   111. D(C  11,C  10,C   9,H  21)    179.83 -0.000001    0.00    179.83   
   112. D(H  22,C  10,C   9,C   0)   -179.98  0.000002   -0.00   -179.98   
   113. D(H  22,C  10,C   9,H  21)     -0.10  0.000002   -0.01     -0.10   
   114. D(C  12,C  11,C  10,C   9)     -0.04 -0.000000    0.00     -0.04   
   115. D(C  12,C  11,C  10,H  22)    179.89 -0.000004    0.01    179.90   
   116. D(H  23,C  11,C  10,C   9)   -179.97  0.000001   -0.00   -179.97   
   117. D(H  23,C  11,C  10,H  22)     -0.05 -0.000003    0.01     -0.04   
   118. D(C  13,C  12,C  11,C  10)      0.03 -0.000000    0.00      0.04   
   119. D(C  13,C  12,C  11,H  23)    179.97 -0.000001    0.00    179.98   
   120. D(H  24,C  12,C  11,C  10)   -179.95  0.000001   -0.00   -179.95   
   121. D(H  24,C  12,C  11,H  23)     -0.01  0.000000   -0.00     -0.01   
   122. D(C  12,C  13,C   0,C   1)    179.89 -0.000002    0.00    179.89   
   123. D(H  25,C  13,C  12,C  11)    179.99  0.000002   -0.01    179.99   
   124. D(H  25,C  13,C   0,C   1)     -0.05 -0.000000    0.00     -0.05   
   125. D(H  25,C  13,C   0,C   9)    179.92 -0.000004    0.01    179.93   
   126. D(C   0,C  13,C  12,C  11)      0.06  0.000003   -0.01      0.05   
   127. D(C  12,C  13,C   0,C   9)     -0.14 -0.000005    0.01     -0.13   
   128. D(C   0,C  13,C  12,H  24)   -179.96  0.000002   -0.00   -179.96   
   129. D(H  25,C  13,C  12,H  24)     -0.02  0.000000   -0.00     -0.02   
    ----------------------------------------------------------------------------

Geometry step timings:
Preparation and reading OPT file:      0.001 s ( 7.617 %)
Internal coordinates            :      0.000 s ( 0.798 %)
B/P matrices and projection     :      0.003 s (38.070 %)
Hessian update/contruction      :      0.001 s ( 7.948 %)
Making the step                 :      0.001 s (16.619 %)
Converting the step to Cartesian:      0.000 s ( 3.086 %)
Storing new data                :      0.000 s ( 0.708 %)
Checking convergence            :      0.000 s ( 0.406 %)
Final printing                  :      0.002 s (24.718 %)
Total time                      :      0.007 s

Time for energy+gradient        :     77.932 s
Time for complete geometry iter :     78.263 s

         *************************************************************
         *                GEOMETRY OPTIMIZATION CYCLE   3            *
         *************************************************************
---------------------------------
CARTESIAN COORDINATES (ANGSTROEM)
---------------------------------
  C      1.882183   -0.428655    0.167527
  C      0.432119   -0.512305    0.026556
  C     -0.427525    0.510174   -0.074021
  C     -1.877608    0.426965   -0.215001
  C     -2.584027   -0.779413   -0.265250
  C     -3.958592   -0.792435   -0.399277
  C     -4.669821    0.396996   -0.487205
  C     -3.987345    1.601479   -0.439446
  C     -2.610367    1.613589   -0.305293
  C      2.585196    0.778086    0.247937
  C      3.960064    0.791682    0.378660
  C      4.674937   -0.397532    0.434156
  C      3.995714   -1.602378    0.357824
  C      2.618434   -1.615069    0.226856
  H      0.047830   -1.521003    0.002273
  H     -0.042675    1.518744   -0.053548
  H     -2.056083   -1.715978   -0.199038
  H     -4.480831   -1.734992   -0.435642
  H     -5.742401    0.382554   -0.591695
  H     -4.527457    2.532065   -0.506776
  H     -2.086733    2.556224   -0.268968
  H      2.054166    1.714478    0.210054
  H      4.479572    1.734522    0.438923
  H      5.747703   -0.382640    0.536614
  H      4.538620   -2.532800    0.400442
  H      2.097415   -2.558011    0.167905

----------------------------
CARTESIAN COORDINATES (A.U.)
----------------------------
  NO LB      ZA    FRAG     MASS         X           Y           Z
   0 C     6.0000    0    12.011    3.556811   -0.810040    0.316580
   1 C     6.0000    0    12.011    0.816586   -0.968117    0.050184
   2 C     6.0000    0    12.011   -0.807905    0.964090   -0.139879
   3 C     6.0000    0    12.011   -3.548165    0.806846   -0.406293
   4 C     6.0000    0    12.011   -4.883103   -1.472878   -0.501249
   5 C     6.0000    0    12.011   -7.480655   -1.497485   -0.754523
   6 C     6.0000    0    12.011   -8.824683    0.750214   -0.920684
   7 C     6.0000    0    12.011   -7.534990    3.026357   -0.830433
   8 C     6.0000    0    12.011   -4.932878    3.049242   -0.576920
   9 C     6.0000    0    12.011    4.885313    1.470369    0.468533
  10 C     6.0000    0    12.011    7.483437    1.496062    0.715563
  11 C     6.0000    0    12.011    8.834351   -0.751226    0.820435
  12 C     6.0000    0    12.011    7.550806   -3.028056    0.676190
  13 C     6.0000    0    12.011    4.948123   -3.052039    0.428697
  14 H     1.0000    0     1.008    0.090385   -2.874279    0.004295
  15 H     1.0000    0     1.008   -0.080643    2.870011   -0.101190
  16 H     1.0000    0     1.008   -3.885433   -3.242728   -0.376128
  17 H     1.0000    0     1.008   -8.467543   -3.278659   -0.823245
  18 H     1.0000    0     1.008  -10.851565    0.722922   -1.118141
  19 H     1.0000    0     1.008   -8.555655    4.784910   -0.957668
  20 H     1.0000    0     1.008   -3.943355    4.830563   -0.508276
  21 H     1.0000    0     1.008    3.881812    3.239894    0.396945
  22 H     1.0000    0     1.008    8.465164    3.277772    0.829444
  23 H     1.0000    0     1.008   10.861585   -0.723085    1.014054
  24 H     1.0000    0     1.008    8.576749   -4.786298    0.756725
  25 H     1.0000    0     1.008    3.963541   -4.833941    0.317295

--------------------------------
INTERNAL COORDINATES (ANGSTROEM)
--------------------------------
 C      0   0   0     0.000000000000     0.00000000     0.00000000
 C      1   0   0     1.459300397621     0.00000000     0.00000000
 C      2   1   0     1.339614748658   126.95223193     0.00000000
 C      3   2   1     1.459294544684   126.96955847   179.99999474
 C      4   3   2     1.398892706939   123.67216925     0.00000000
 C      5   4   3     1.381145211879   120.94363488   179.96861901
 C      6   5   4     1.388640745277   120.51775649     0.00000000
 C      7   6   5     1.385220112280   119.35776426     0.00000000
 C      8   7   6     1.383551020113   120.08587177     0.00000000
 C      1   2   3     1.398898370467   123.66720024     1.49685047
 C     10   1   2     1.381135635993   120.94395842   180.10869873
 C     11  10   1     1.388651263437   120.51823598   359.94979129
 C     12  11  10     1.385216854798   119.35665688   359.96489724
 C     13  12  11     1.383551212774   120.08664329     0.03614209
 H      2   1   3     1.079693453445   114.16696923   179.85112917
 H      3   2   1     1.079695628042   118.87018627     0.07809955
 H      5   4   3     1.077154649165   120.00712795   359.97546153
 H      6   5   4     1.078178870433   119.57606912   179.99966671
 H      7   6   5     1.077754134827   120.29009655   180.00158693
 H      8   7   6     1.078074683962   120.10465489   179.99208346
 H      9   8   7     1.078921368189   119.59963813   179.99823167
 H     10   1   2     1.077152848335   120.00887293     0.22855291
 H     11  10   1     1.078177879934   119.57420474   180.01610498
 H     12  11  10     1.077750562607   120.29032133   180.02545765
 H     13  12  11     1.078075758088   120.10300576   180.04569133
 H     14  13  12     1.078923113349   119.59765508   179.98690788

---------------------------
INTERNAL COORDINATES (A.U.)
---------------------------
 C      0   0   0     0.000000000000     0.00000000     0.00000000
 C      1   0   0     2.757678098627     0.00000000     0.00000000
 C      2   1   0     2.531504999925   126.95223193     0.00000000
 C      3   2   1     2.757667038179   126.96955847   179.99999474
 C      4   3   2     2.643524106854   123.67216925     0.00000000
 C      5   4   3     2.609986201629   120.94363488   179.96861901
 C      6   5   4     2.624150706977   120.51775649     0.00000000
 C      7   6   5     2.617686647410   119.35776426     0.00000000
 C      8   7   6     2.614532520320   120.08587177     0.00000000
 C      1   2   3     2.643534809371   123.66720024     1.49685047
 C     10   1   2     2.609968105825   120.94395842   180.10869873
 C     11  10   1     2.624170583419   120.51823598   359.94979129
 C     12  11  10     2.617680491659   119.35665688   359.96489724
 C     13  12  11     2.614532884398   120.08664329     0.03614209
 H      2   1   3     2.040324935598   114.16696923   179.85112917
 H      3   2   1     2.040329044991   118.87018627     0.07809955
 H      5   4   3     2.035527290802   120.00712795   359.97546153
 H      6   5   4     2.037462788499   119.57606912   179.99966671
 H      7   6   5     2.036660154524   120.29009655   180.00158693
 H      8   7   6     2.037265904601   120.10465489   179.99208346
 H      9   8   7     2.038865905912   119.59963813   179.99823167
 H     10   1   2     2.035523887726   120.00887293     0.22855291
[...]
    98. D(C   7,C   8,C   3,C   2)   -178.53 -0.000001   -0.00   -178.53   
    99. D(C   7,C   8,C   3,C   4)     -2.08 -0.000003    0.00     -2.07   
   100. D(H  20,C   8,C   3,C   2)      2.05  0.000001   -0.00      2.04   
   101. D(H  20,C   8,C   3,C   4)    178.50 -0.000000   -0.00    178.50   
   102. D(C   3,C   8,C   7,C   6)      1.16  0.000001   -0.00      1.16   
   103. D(C   3,C   8,C   7,H  19)   -179.24  0.000000    0.00   -179.24   
   104. D(H  20,C   8,C   7,C   6)   -179.41 -0.000001    0.00   -179.41   
   105. D(H  20,C   8,C   7,H  19)      0.18 -0.000002    0.00      0.19   
   106. D(C  10,C   9,C   0,C   1)    177.79 -0.000005    0.00    177.79   
   107. D(C  10,C   9,C   0,C  13)      1.60  0.000003   -0.00      1.60   
   108. D(H  21,C   9,C   0,C   1)     -1.38 -0.000001   -0.00     -1.38   
   109. D(H  21,C   9,C   0,C  13)   -177.58  0.000007   -0.00   -177.58   
   110. D(C  11,C  10,C   9,C   0)     -0.25 -0.000001    0.00     -0.25   
   111. D(C  11,C  10,C   9,H  21)    178.92 -0.000005    0.00    178.93   
   112. D(H  22,C  10,C   9,C   0)   -179.68 -0.000001    0.00   -179.68   
   113. D(H  22,C  10,C   9,H  21)     -0.51 -0.000004    0.00     -0.50   
   114. D(C  12,C  11,C  10,C   9)     -0.69 -0.000001    0.00     -0.69   
   115. D(C  12,C  11,C  10,H  22)    178.73 -0.000002   -0.00    178.73   
   116. D(H  23,C  11,C  10,C   9)    179.99  0.000001   -0.00    179.99   
   117. D(H  23,C  11,C  10,H  22)     -0.59 -0.000000   -0.00     -0.59   
   118. D(C  13,C  12,C  11,C  10)      0.25  0.000001   -0.00      0.25   
   119. D(C  13,C  12,C  11,H  23)    179.56 -0.000001    0.00    179.56   
   120. D(H  24,C  12,C  11,C  10)   -179.32  0.000002   -0.00   -179.32   
   121. D(H  24,C  12,C  11,H  23)     -0.00  0.000000   -0.00     -0.00   
   122. D(C  12,C  13,C   0,C   1)   -178.43 -0.000000   -0.00   -178.43   
   123. D(H  25,C  13,C  12,C  11)   -179.38 -0.000001    0.00   -179.38   
   124. D(H  25,C  13,C   0,C   1)      2.10  0.000002   -0.00      2.10   
   125. D(H  25,C  13,C   0,C   9)    178.48 -0.000001   -0.00    178.48   
   126. D(C   0,C  13,C  12,C  11)      1.15  0.000001   -0.00      1.15   
   127. D(C  12,C  13,C   0,C   9)     -2.05 -0.000003    0.00     -2.05   
   128. D(C   0,C  13,C  12,H  24)   -179.28  0.000001    0.00   -179.28   
   129. D(H  25,C  13,C  12,H  24)      0.19 -0.000001    0.00      0.19   
    ----------------------------------------------------------------------------

Geometry step timings:
Preparation and reading OPT file:      0.001 s (11.884 %)
Internal coordinates            :      0.000 s ( 0.732 %)
B/P matrices and projection     :      0.003 s (32.379 %)
Hessian update/contruction      :      0.001 s ( 7.161 %)
Making the step                 :      0.001 s (15.169 %)
Converting the step to Cartesian:      0.000 s ( 2.888 %)
Storing new data                :      0.000 s ( 0.642 %)
Checking convergence            :      0.000 s ( 0.372 %)
Final printing                  :      0.002 s (28.709 %)
Total time                      :      0.008 s
                 *******************************************************
                 *** FINAL ENERGY EVALUATION AT THE STATIONARY POINT ***
                 ***               (AFTER    5 CYCLES)               ***
                 *******************************************************
---------------------------------
CARTESIAN COORDINATES (ANGSTROEM)
---------------------------------
  C      1.512343   -0.383905    0.868020
  C      0.466685   -0.157862    1.871654
  C     -0.828237    0.154634    1.742473
  C     -1.655210    0.380501    0.552130
  C     -1.512391   -0.349426   -0.631076
  C     -2.349581   -0.122802   -1.707803
  C     -3.352328    0.833605   -1.630128
  C     -3.519880    1.552139   -0.456747
  C     -2.688017    1.318284    0.623889
  C      1.599753    0.338837   -0.324958
  C      2.633913    0.113977   -1.214610
  C      3.609136   -0.833093   -0.934639
  C      3.547694   -1.544480    0.253334
  C      2.517644   -1.312628    1.147634
  H      0.804955   -0.310462    2.887140
  H     -1.359858    0.309559    2.671097
  H     -0.749154   -1.105351   -0.698289
  H     -2.224973   -0.701161   -2.609253
  H     -4.002549    1.007988   -2.472047
  H     -4.302200    2.290118   -0.380260
  H     -2.829692    1.874223    1.537731
  H      0.859504    1.088255   -0.545805
  H      2.684730    0.686791   -2.126714
  H      4.413873   -1.005832   -1.630745
  H      4.305355   -2.275026    0.487271
  H      2.480976   -1.862535    2.075270

----------------------------
CARTESIAN COORDINATES (A.U.)
----------------------------
  NO LB      ZA    FRAG     MASS         X           Y           Z
   0 C     6.0000    0    12.011    2.857915   -0.725475    1.640320
   1 C     6.0000    0    12.011    0.881906   -0.298316    3.536914
   2 C     6.0000    0    12.011   -1.565141    0.292217    3.292796
   3 C     6.0000    0    12.011   -3.127894    0.719043    1.043374
   4 C     6.0000    0    12.011   -2.858004   -0.660320   -1.192561
   5 C     6.0000    0    12.011   -4.440065   -0.232062   -3.227280
   6 C     6.0000    0    12.011   -6.334981    1.575286   -3.080496
   7 C     6.0000    0    12.011   -6.651610    2.933118   -0.863127
   8 C     6.0000    0    12.011   -5.079616    2.491196    1.178979
   9 C     6.0000    0    12.011    3.023096    0.640309   -0.614081
  10 C     6.0000    0    12.011    4.977374    0.215385   -2.295280
  11 C     6.0000    0    12.011    6.820279   -1.574317   -1.766211
  12 C     6.0000    0    12.011    6.704170   -2.918643    0.478731
  13 C     6.0000    0    12.011    4.757657   -2.480508    2.168714
  14 H     1.0000    0     1.008    1.521145   -0.586687    5.455904
  15 H     1.0000    0     1.008   -2.569760    0.584982    5.047642
  16 H     1.0000    0     1.008   -1.415695   -2.088811   -1.319574
  17 H     1.0000    0     1.008   -4.204590   -1.325002   -4.930773
  18 H     1.0000    0     1.008   -7.563722    1.904821   -4.671492
  19 H     1.0000    0     1.008   -8.129980    4.327695   -0.718588
  20 H     1.0000    0     1.008   -5.347344    3.541768    2.905890
  21 H     1.0000    0     1.008    1.624227    2.056504   -1.031422
  22 H     1.0000    0     1.008    5.073405    1.297846   -4.018907
  23 H     1.0000    0     1.008    8.341011   -1.900747   -3.081661
  24 H     1.0000    0     1.008    8.135942   -4.299176    0.920808
  25 H     1.0000    0     1.008    4.688365   -3.519681    3.921692

--------------------------------
INTERNAL COORDINATES (ANGSTROEM)
--------------------------------
 C      0   0   0     0.000000000000     0.00000000     0.00000000
 C      1   0   0     1.466894533411     0.00000000     0.00000000
 C      2   1   0     1.338344116917   131.27323177     0.00000000
 C      3   2   1     1.466907120681   131.28003730     0.00000000
 C      4   3   2     1.397557442739   123.29671747    37.05387077
 C      5   4   3     1.382601845093   120.78621537   177.86974346
 C      6   5   4     1.387893413588   120.45436243   359.78471422
 C      7   6   5     1.386069319174   119.46861746   359.25797387
 C      8   7   6     1.383640130832   120.05775701     0.27327225
 C      1   2   3     1.397566050057   123.29337719    36.54119130
 C     10   1   2     1.382580660793   120.79384090   177.79444159
 C     11  10   1     1.387942805717   120.44735801   359.75053006
 C     12  11  10     1.386046546900   119.46952252   359.30535112
 C     13  12  11     1.383665999725   120.06363865     0.24803241
 H      2   1   3     1.081168400924   113.44357655   177.32203833
 H      3   2   1     1.081187557050   115.23312875   182.84560677
 H      5   4   3     1.076322984537   119.48191154   358.66668649
 H      6   5   4     1.078256765792   119.54943625   180.32411646
 H      7   6   5     1.077972222461   120.23628365   179.94876072
 H      8   7   6     1.078186906973   120.17147001   180.67637170
 H      9   8   7     1.079002571751   119.69872575   180.58894258
 H     10   1   2     1.076276347681   119.48727402   358.61779763
 H     11  10   1     1.078254182502   119.54920287   180.32376461
 H     12  11  10     1.077962835390   120.24036146   179.98831880
 H     13  12  11     1.078181494125   120.17079006   180.67947294
 H     14  13  12     1.079004311075   119.70650832   180.62013248

---------------------------
INTERNAL COORDINATES (A.U.)
---------------------------
 C      0   0   0     0.000000000000     0.00000000     0.00000000
 C      1   0   0     2.772028935493     0.00000000     0.00000000
 C      2   1   0     2.529103853917   131.27323177     0.00000000
 C      3   2   1     2.772052721987   131.28003730     0.00000000
 C      4   3   2     2.641000823200   123.29671747    37.05387077
 C      5   4   3     2.612738839479   120.78621537   177.86974346
 C      6   5   4     2.622738454755   120.45436243   359.78471422
 C      7   6   5     2.619291415870   119.46861746   359.25797387
 C      8   7   6     2.614700915176   120.05775701     0.27327225
 C      1   2   3     2.641017088674   123.29337719    36.54119130
 C     10   1   2     2.612698806954   120.79384090   177.79444159
 C     11  10   1     2.622831792352   120.44735801   359.75053006
 C     12  11  10     2.619248382509   119.46952252   359.30535112
 C     13  12  11     2.614749800298   120.06363865     0.24803241
 H      2   1   3     2.043112182396   113.44357655   177.32203833
 H      3   2   1     2.043148382228   115.23312875   182.84560677
 H      5   4   3     2.033955672419   119.48191154   358.66668649
 H      6   5   4     2.037609989395   119.54943625   180.32411646
 H      7   6   5     2.037072280426   120.23628365   179.94876072
 H      8   7   6     2.037477975360   120.17147001   180.67637170
 H      9   8   7     2.039019358407   119.69872575   180.58894258
 H     10   1   2     2.033867541534   119.48727402   358.61779763
 H     11  10   1     2.037605107684   119.54920287   180.32376461
 H     12  11  10     2.037054541433   120.24036146   179.98831880
 H     13  12  11     2.037467746558   120.17079006   180.67947294
 H     14  13  12     2.039022645252   119.70650832   180.62013248

Calling /home/x_rompe/bin/ExtOptORCA-OpenQP/oqp_orca_wrapper stilbene_scan_EXT.extinp.tmp 1 6-31g*  ... 

MPI startup(): PMI server not found. Please set I_MPI_PMI_LIBRARY variable if it is not a singleton case.
input.charge=0
input.basis=6-31g*
input.functional=bhhlyp
input.method=tdhf
input.runtype=grad
input.system=stilbene_scan_EXT.xyz
input.system2=
input.d4=False
guess.type=json
guess.file=EXT_ORCA_FOR_OQP.json
guess.file2=
guess.save_mol=True
guess.continue_geom=False
scf.type=rohf
scf.maxit=100
scf.forced_attempt=1
scf.maxdiis=7
scf.diis_reset_mod=10
scf.diis_reset_conv=0.005
scf.diis_method_threshold=2.0
scf.diis_type=cdiis
scf.vdiis_cdiis_switch=0.3
scf.vdiis_vshift_switch=0.003
scf.vshift_cdiis_switch=0.3
scf.vshift=0.0
scf.mom=False
scf.mom_switch=0.003
scf.pfon=False
scf.pfon_start_temp=2000.0
scf.pfon_cooling_rate=50.0
scf.pfon_nsmear=5.0
scf.multiplicity=3
scf.conv=1.0e-6
scf.incremental=True
scf.init_scf=no
scf.init_it=0
scf.save_molden=True
dftgrid.hfscale=-1.0
dftgrid.cam_flag=False
dftgrid.cam_alpha=-1.0
dftgrid.cam_beta=-1.0
dftgrid.cam_mu=-1.0
dftgrid.rad_type=mhl
dftgrid.rad_npts=50
dftgrid.ang_npts=194
dftgrid.partfun=ssf
dftgrid.pruned=SG1
dftgrid.grid_ao_pruned=True
dftgrid.grid_ao_threshold=1.0e-15
dftgrid.grid_ao_sparsity_ratio=0.9
tdhf.type=mrsf
tdhf.maxit=50
tdhf.maxit_zv=50
tdhf.multiplicity=1
tdhf.conv=1.0e-6
tdhf.nstate=3
tdhf.zvconv=1.0e-6
tdhf.nvdav=50
tdhf.tlf=2
tdhf.hfscale=-1.0
tdhf.cam_alpha=-1.0
tdhf.cam_beta=-1.0
tdhf.cam_mu=-1.0
tdhf.spc_coco=-1.0
tdhf.spc_ovov=-1.0
tdhf.spc_coov=-1.0
tdhf.conf_threshold=5.0e-2
properties.scf_prop=el_mom,mulliken
properties.td_prop=False
properties.grad=1
properties.nac=
properties.soc=
properties.export=True
properties.title=
properties.back_door=False
optimize.lib=scipy
optimize.optimizer=bfgs
optimize.step_size=0.1
optimize.step_tol=1e-2
optimize.maxit=30
optimize.mep_maxit=10
optimize.rmsd_grad=1e-4
optimize.rmsd_step=1e-3
optimize.max_grad=3e-4
optimize.max_step=2e-3
optimize.istate=1
optimize.jstate=2
optimize.kstate=3
optimize.imult=1
optimize.jmult=3
optimize.energy_shift=1e-6
optimize.energy_gap=1e-5
optimize.meci_search=penalty
optimize.pen_sigma=1.0
optimize.pen_alpha=0.0
optimize.pen_incre=1.0
optimize.gap_weight=1.0
optimize.init_scf=False
dlfind.printl=2
dlfind.icoord=3
dlfind.iopt=3
dlfind.ims=0
hess.type=numerical
hess.state=0
hess.dx=0.01
hess.nproc=1
hess.read=False
hess.restart=False
hess.temperature=298.15
hess.clean=False
nac.type=numerical
nac.dt=1
nac.dx=0.0001
nac.bp=False
nac.nproc=1
nac.restart=False
nac.clean=False
nac.states=1 2
nac.align=reorder
basis_set.library=
tests.exception=False
functional=bhhlyp

External program completed successfully in 95.957 sec

-------------------------------------------------   --------------------
FINAL SINGLE POINT ENERGY (From external program)      -540.361259518852
-------------------------------------------------   --------------------


------------------
CARTESIAN GRADIENT
------------------

   1   C   :   -0.000618901   -0.002340000   -0.000028838
   2   C   :    0.001491341    0.005785232    0.000108605
   3   C   :   -0.001488580   -0.005764528   -0.000196114
   4   C   :    0.000608530    0.002337780    0.000088320
   5   C   :   -0.000002375    0.000036638    0.000036339
   6   C   :   -0.000011264   -0.000000821   -0.000018773
   7   C   :   -0.000010556    0.000017308    0.000010231
   8   C   :   -0.000009137    0.000000776   -0.000031636
   9   C   :   -0.000016294    0.000003854   -0.000013904
  10   C   :   -0.000009693   -0.000023396    0.000036156
  11   C   :    0.000011692    0.000001308   -0.000016950
  12   C   :    0.000000716   -0.000014097    0.000019976
  13   C   :    0.000005243    0.000007798   -0.000016251
  14   C   :    0.000012142    0.000003062   -0.000003850
  15   H   :   -0.000047202    0.000015157    0.000013582
  16   H   :    0.000032982    0.000011859    0.000017315
  17   H   :   -0.000016218   -0.000006483   -0.000032994
  18   H   :    0.000006635   -0.000005249    0.000003040
  19   H   :    0.000007396   -0.000012198   -0.000015628
  20   H   :    0.000004785    0.000008880    0.000012726
  21   H   :   -0.000006261    0.000010816   -0.000009734
  22   H   :    0.000012623    0.000010142   -0.000029627
  23   H   :   -0.000010306    0.000001568    0.000000812
  24   H   :   -0.000009090    0.000010094   -0.000007985
  25   H   :   -0.000015027   -0.000000854    0.000026172
  26   H   :   -0.000002761    0.000006096    0.000003003

Difference to translation invariance:
           :   -0.0000795804    0.0001007458   -0.0000460052

Difference to rotation invariance:
           :   -0.0004728100   -0.0005338313   -0.0001536489

Norm of the Cartesian gradient     ...    0.0091054659
RMS gradient                       ...    0.0010309910
MAX gradient                       ...    0.0057852324
                                *** OPTIMIZATION RUN DONE ***


Storing optimized geometry in stilbene_scan.018.xyz ... done
Storing optimized geometry and energy in stilbene_scan.xyzall ... done
Storing actual gbw-file in stilbene_scan.018.gbw ... done
                   **** RELAXED SURFACE SCAN DONE ***

                    SUMMARY OF THE CALCULATED SURFACE

----------------------------
RELAXED SURFACE SCAN RESULTS
----------------------------

Column   1: NONAME

The Calculated Surface using the 'Actual Energy'
 180.00000000 -540.36969113
 169.41176471 -540.36875403
 158.82352941 -540.36594008
 148.23529412 -540.36127208
 137.64705882 -540.35482808
 127.05882353 -540.34670238
 116.47058824 -540.33702788
 105.88235294 -540.32594367
  95.29411765 -540.31358731
  84.70588235 -540.30015295
  74.11764706 -540.28595229
  63.52941176 -540.27148020
  52.94117647 -540.34773979
  42.35294118 -540.35353109
  31.76470588 -540.35770254
  21.17647059 -540.36033537
  10.58823529 -540.36150135
   0.00000000 -540.36125952

The Calculated Surface using the SCF energy
 180.00000000 -540.36969113
 169.41176471 -540.36875403
 158.82352941 -540.36594008
 148.23529412 -540.36127208
 137.64705882 -540.35482808
 127.05882353 -540.34670238
 116.47058824 -540.33702788
 105.88235294 -540.32594367
  95.29411765 -540.31358731
  84.70588235 -540.30015295
  74.11764706 -540.28595229
  63.52941176 -540.27148020
  52.94117647 -540.34773979
  42.35294118 -540.35353109
  31.76470588 -540.35770254
  21.17647059 -540.36033537
  10.58823529 -540.36150135
   0.00000000 -540.36125952


--------------------------------
SUGGESTED CITATIONS FOR THIS RUN
--------------------------------

Below you find a list of papers that are relevant to this ORCA run
We neither can nor want to force you to cite these papers, but we appreciate if you do
You receive ORCA, which is the product of decades of hard work by many enthusiastic individuals, for free
The only thing we kindly ask in return is that you cite our papers,
We deeply appreciate it, if you show your appreciation for ORCA by not just citing the generic ORCA reference.

Please note that relegating all ORCA citations to the supporting information does *not* help us.
SI sections are not indexed - citations you put there will not count into any citation statistics
But we need these citations in order to attract the funding resources that allow us to do what we are doing

Therefore, if you are a happy ORCA user, please consider citing a few of the papers listed below in the main body of your paper

In addition to the list printed below, the program has created the file stilbene_scan.bibtex that contains the list in bibtex format
You can import this file easily into all common literature databanks and citation aid programs


List of essential papers. We consider these as the minimum necessary citations

  1. Neese,F.
     Software update: the ORCA program system, version 5.0
     WIRES Comput. Molec. Sci., 2022 12(1)e1606
     doi.org/10.1002/wcms.1606

List of papers to cite with high priority. The work reported in these papers was absolutely
necessary for this run to complete.
Our perspective: the developers of density functionals and basis sets usually get cited in chemistry papers
Good! But without the algorithms to do something with them, the functionals or basis sets would not do anything.
Hence, in our opinion, the algorithm design and method developments papers are equally worthy of getting cited

  1. Neese,F.
     The SHARK Integral Generation and Digestion System
     J. Comp. Chem., 2022  1-16
     doi.org/10.1002/jcc.26942

List of suggested additional citations. These are papers that are important in the 'surrounding' of 
of this run, or papers that preceded the highly important papers. If you like your results we are grateful for a citation.

  1. Neese,F.
     The ORCA program system
     WIRES Comput. Molec. Sci., 2012 2(1)73-78
     doi.org/10.1002/wcms.81
  2. Neese,F.
     Software update: the ORCA program system, version 4.0
     WIRES Comput. Molec. Sci., 2018 8(1)1-6
     doi.org/10.1002/wcms.1327
  3. Neese,F.; Wennmohs,F.; Becker,U.; Riplinger,C.
     The ORCA quantum chemistry program package
     J. Chem. Phys., 2020 152 Art. No. L224108
     doi.org/10.1063/5.0004608

List of optional additional citations

  1. Neese,F.
     Approximate second-order SCF convergence for spin unrestricted wavefunctions
     Chem. Phys. Lett., 2000 325(1-3)93-98
     doi.org/10.1016/s0009-2614(00)00662-x

Timings for individual modules:

Sum of individual times          ...    13848.869 sec (= 230.814 min)
Geometry relaxation              ...        1.181 sec (=   0.020 min)   0.0 %
External energy and gradient     ...    13847.688 sec (= 230.795 min) 100.0 %
                             ****ORCA TERMINATED NORMALLY****
TOTAL RUN TIME: 0 days 3 hours 51 minutes 31 seconds 146 msec
