
                                 *****************
                                 * O   R   C   A *
                                 *****************

                                            #,                                       
                                            ###                                      
                                            ####                                     
                                            #####                                    
                                            ######                                   
                                           ########,                                 
                                     ,,################,,,,,                         
                               ,,#################################,,                 
                          ,,##########################################,,             
                       ,#########################################, ''#####,          
                    ,#############################################,,   '####,        
                  ,##################################################,,,,####,       
                ,###########''''           ''''###############################       
              ,#####''   ,,,,##########,,,,          '''####'''          '####       
            ,##' ,,,,###########################,,,                        '##       
           ' ,,###''''                  '''############,,,                           
         ,,##''                                '''############,,,,        ,,,,,,###''
      ,#''                                            '''#######################'''  
     '                                                          ''''####''''         
             ,#######,   #######,   ,#######,      ##                                
            ,#'     '#,  ##    ##  ,#'     '#,    #''#        ,####,   ,####,        
            ##       ##  ##   ,#'  ##            #'  '#       #'       #'  '#        
            ##       ##  #######   ##           ,######,      #####,   #    #        
            '#,     ,#'  ##    ##  '#,     ,#' ,#      #,     #,   #   #,  ,#        
             '#######'   ##     ##  '#######'  #'      '#     '####' # '####'        



                #########################################################
                #                        -***-                          #
                #          Department of theory and spectroscopy        #
                #                                                       #
                #                      Frank Neese                      #
                #                                                       #
                #     Directorship, Architecture, Infrastructure        #
                #                    SHARK, DRIVERS                     #
                #        Core code/Algorithms in most modules           #
                #                                                       #
                #        Max Planck Institute fuer Kohlenforschung      #
                #                Kaiser Wilhelm Platz 1                 #
                #                 D-45470 Muelheim/Ruhr                 #
                #                      Germany                          #
                #                                                       #
                #                  All rights reserved                  #
                #                        -***-                          #
                #########################################################


                         Program Version 6.0.1  -  RELEASE   -


 With contributions from (in alphabetic order):
[Max-Planck-Institut fuer Kohlenforschung]                               
  Daniel Aravena         : Magnetic Suceptibility                        
  Michael Atanasov       : Ab Initio Ligand Field Theory (pilot matlab implementation)
  Alexander A. Auer      : GIAO ZORA, VPT2 properties, NMR spectrum      
  Ute Becker             : All parallelization in ORCA, NUMFREQ, NUMCALC 
  Giovanni Bistoni       : ED, misc. LED, open-shell LED, HFLD           
  Martin Brehm           : Molecular dynamics                            
  Dmytro Bykov           : pre 5.0 version of the SCF Hessian            
  Marcos Casanova-Páez   : Triplet and SCS-CIS(D). UHF-(DLPNO)-IP/EA/STEOM-CCSD. UHF-CVS-IP/STEOM-CCSD   
  Vijay G. Chilkuri      : MRCI spin determinant printing, contributions to CSF-ICE 
  Pauline Colinet        : FMM embedding                                 
  Dipayan Datta          : RHF DLPNO-CCSD density                        
  Achintya Kumar Dutta   : EOM-CC, STEOM-CC                              
  Nicolas Foglia         : Exact transition moments, OPA infrastructure, MCD improvements    
  Dmitry Ganyushin       : Spin-Orbit,Spin-Spin,Magnetic field MRCI      
  Miquel Garcia-Rates    : C-PCM and meta-GGA Hessian, CCSD/C-PCM, Gaussian charge scheme 
  Tiago L. C. Gouveia    : GS-ROHF, GS-ROCIS                             
  Yang Guo               : DLPNO-NEVPT2, F12-NEVPT2, CIM, IAO-localization        
  Andreas Hansen         : Spin unrestricted coupled pair/coupled cluster methods 
  Ingolf Harden          : AUTO-CI MPn and infrastructure                
  Benjamin Helmich-Paris : MC-RPA, TRAH-(SCF,CASSCF), AVAS, COSX integrals, SCF dyn. polar. 
  Lee Huntington         : MR-EOM, pCC                                   
  Robert Izsak           : Overlap fitted RIJCOSX, COSX-SCS-MP3, EOM     
  Riya Kayal             : Wick's Theorem for AUTO-CI, AUTO-CI UHF-CCSDT 
  Emily Kempfer          : AUTO-CI, RHF CISDT and CCSDT                  
  Christian Kollmar      : KDIIS, OOCD, Brueckner-CCSD(T), CCSD density, CASPT2, CASPT2-K, improved NEVPT2 
  Axel Koslowski         : Symmetry handling                             
  Simone Kossmann        : meta-GGA functionals, TD-DFT gradient, OOMP2, (MP2 Hessian; deprecated post 5.0) 
  Lucas Lang             : DCDCAS                                        
  Marvin Lechner         : AUTO-CI (C++ implementation), FIC-MRCC        
  Spencer Leger          : CASSCF response                               
  Dagmar Lenk            : GEPOL surface, SMD, ORCA-2-JSON               
  Dimitrios Liakos       : Extrapolation schemes; Compound Job, initial MDCI parallelization 
  Dimitrios Manganas     : Further ROCIS development; embedding schemes. LFT, Crystal Embedding 
  Dimitrios Pantazis     : SARC Basis sets                               
  Anastasios Papadopoulos: AUTO-CI, single reference methods and gradients 
  Taras Petrenko         : pre 6.0 DFT Hessian and TD-DFT gradient, (ASA, deprecated), ECA, 1-Electron XAS/XES, NRVS 
  Peter Pinski           : DLPNO-MP2, DLPNO-MP2 Gradient                 
  Christoph Reimann      : Effective Core Potentials                     
  Marius Retegan         : Local ZFS, SOC                                
  Christoph Riplinger    : Optimizer, TS searches, QM/MM, DLPNO-CCSD(T), (RO)-DLPNO pert. Triples 
  Michael Roemelt        : Original ROCIS implementation                 
  Masaaki Saitow         : Open-shell DLPNO-CCSD energy and density      
  Barbara Sandhoefer     : DKH picture change effects                    
  Kantharuban Sivalingam : CASSCF convergence/infrastructure, NEVPT2 and variants, FIC-MRCI 
  Bernardo de Souza      : ESD, SOC TD-DFT                               
  Georgi L. Stoychev     : AutoAux, RI-MP2 NMR, DLPNO-MP2 response, X2C  
  Van Anh Tran           : RI-MP2 g-tensors                              
  Willem Van den Heuvel  : Paramagnetic NMR                              
  Zikuan Wang            : NOTCH, Electric field optimization            
  Frank Wennmohs         : Technical directorship and infrastructure     
  Hang Xu                : AUTO-CI-Response properties                   
                                                                         
[FACCTs GmbH]                                                            
  Markus Bursch, Miquel Garcia-Rates, Christoph Riplinger, Bernardo de Souza, Georgi L. Stoychev 
                                                                 
  APM, Basis sets (HGBS, AHGBS, def-TZVP (Ac-Lr), def2-XVPD (La-Lu)), CI-OPT, improved COSX, DLPNO-Multilevel,           
  DOCKER, DRACO, updates on ESD, GOAT, IRC, LR-CPCM, MBIS, meta-GGA TD-DFT gradient, ML-optimized integration grids, 
  MM, NACMEs, nearIR, NEB, NEB-TS, NL-DFT gradient (VV10), 2- and 3-layer-ONIOM, interface openCOSMO-RS, QMMM,   
  Crystal-QMMM, SF, symmetry and pop. for TD-DFT, r2SCAN hybrids, SOLVATOR                                   
                                                                         
[Other institutions]                                                     
  V. Asgeirsson          : NEB                                           
  Christoph Bannwarth    : sTDA-DFT, sTD-DFT, PBEh-3c, B97-3c, D3        
  Sebastian Ehlert       : rSCAN, r2SCAN, r2SCAN-3c, D4, dhf basis sets  
  Marvin Friede          : D4 for Fr, Ra, Ac-Lr                          
  Lars Goerigk           : TD-DFT with DH, B97 family of functionals     
  Stefan Grimme          : VdW corrections, initial TS optimization, DFT functionals, gCP, sTDA/sTD-DF 
  Waldemar Hujo          : DFT-NL                                        
  H. Jonsson             : NEB                                           
  Holger Kruse           : gCP                                           
  Marcel Mueller         : wB97X-3c, vDZP basis set                      
  Hagen Neugebauer       : wr2SCAN                                       
  Tobias Risthaus        : range-separated hybrid DFT                    
  Lukas Wittmann         : regularized MP2, r2SCAN double-hybrids, wr2SCAN        
                                                                         
We gratefully acknowledge several colleagues who have allowed us to      
interface, adapt or use parts of their codes:                            
  Ed Valeev, F. Pavosevic, A. Kumar             : LibInt (2-el integral package), F12 methods 
  Garnet Chan, S. Sharma, J. Yang, R. Olivares  : DMRG                   
  Ulf Ekstrom                                   : XCFun DFT Library      
  Mihaly Kallay                                 : mrcc  (arbitrary order and MRCC methods)
  Frank Weinhold                                : gennbo (NPA and NBO analysis)           
  Simon Mueller                                 : openCOSMO-RS                            
  Christopher J. Cramer and Donald G. Truhlar   : smd solvation model                     
  S Lehtola, MJT Oliveira, MAL Marques          : LibXC Library                           
  Liviu Ungur et al                             : ANISO software                          


 Your calculation uses the libint2 library for the computation of 2-el integrals
 For citations please refer to: http://libint.valeyev.net

 Your ORCA version has been built with support for libXC version: 6.2.2
 For citations please refer to: https://libxc.gitlab.io

 This ORCA versions uses:
   CBLAS   interface :  Fast vector & matrix operations
   LAPACKE interface :  Fast linear algebra routines
   SCALAPACK package :  Parallel linear algebra routines
   Shared memory     :  Shared parallel matrices
   BLAS/LAPACK       :  OpenBLAS 0.3.27  USE64BITINT DYNAMIC_ARCH NO_AFFINITY SkylakeX SINGLE_THREADED
        Core in use  :  SkylakeX
   Copyright (c) 2011-2014, The OpenBLAS Project


NOTE: MaxCore=3000 MB was set to SCF,MP2,MDCI,CIPSI,MRCI and CIS
      => If you want to overwrite this, your respective input block should be placed after the MaxCore statement
================================================================================

================================================================================
                                        WARNINGS
                       Please study these warnings very carefully!
================================================================================


WARNING: Geometry Optimization
  ===> : Switching off AutoStart
         For restart on a previous wavefunction, please use MOREAD

Using external energy/gradient program given in input:
  "/proj/scgrp/users/x_rompe/ExtOptORCA-OpenQP/oqp_orca_wrapper"


WARNING: four-center integrals in TRAH must be done with SHARK!
  ===> : Turning Shark on


================================================================================
                                       INPUT FILE
================================================================================
NAME = stilbene_scan.inp
|  1> ! ExtOpt opt
|  2> %method
|  3>   ProgExt "/proj/scgrp/users/x_rompe/ExtOptORCA-OpenQP/oqp_orca_wrapper"
|  4>   Ext_Params "-s 1 -b 6-31g*"
|  5> end
|  6> %geom
|  7>   Scan
|  8>   D 0 1 2 3 = 6.0, 180.0, 10
|  9>   end
| 10> end
| 11> %pal
| 12> nprocs 16
| 13> end
| 14> %maxcore 3000
| 15> *xyz 0 1
| 16>  C          1.3805195692       -0.4969795860        0.9308673935
| 17>  C          0.4230268061       -0.2439144375        2.0065535191
| 18>  C         -0.8175918085        0.2338341192        1.8821333105
| 19>  C         -1.5397612195        0.4933208294        0.6374654358
| 20>  C         -1.4576430885       -0.3739441373       -0.4514517274
| 21>  C         -2.1699381218       -0.1185890387       -1.6070959865
| 22>  C         -2.9765858591        1.0044621503       -1.6980378196
| 23>  C         -3.0788934572        1.8642394479       -0.6173945156
| 24>  C         -2.3757256174        1.6051119356        0.5440712124
| 25>  C          1.5162441795        0.3744838677       -0.1493160375
| 26>  C          2.4463494991        0.1249634068       -1.1396373206
| 27>  C          3.2576552696       -0.9962935014       -1.0710633057
| 28>  C          3.1433735141       -1.8602512717        0.0050323927
| 29>  C          2.2209917322       -1.6070113229        1.0028598554
| 30>  H          0.7927065106       -0.4652413907        3.0011553523
| 31>  H         -1.3793549390        0.4502761974        2.7835151489
| 32>  H         -0.8398408805       -1.2567607099       -0.3809301174
| 33>  H         -2.0985803404       -0.8008460121       -2.4417730351
| 34>  H         -3.5290774834        1.2041301729       -2.6043994631
| 35>  H         -3.7134099174        2.7367300817       -0.6783790360
| 36>  H         -2.4583217748        2.2775927110        1.3866759333
| 37>  H          0.8948310623        1.2561346323       -0.2008406689
| 38>  H          2.5421454514        0.8105538501       -1.9691806811
| 39>  H          3.9812830687       -1.1912235127       -1.8488710578
| 40>  H          3.7795075895       -2.7313297866        0.0694387969
| 41>  H          2.1349369166       -2.2825836863        1.8426528145
| 42> **                         ****END OF INPUT****
================================================================================

                       ******************************
                       *    Relaxed Surface Scan    *
                       ******************************

        Dihedral (  3,   2,   1,   0):   range=   6.00000000 .. 180.00000000  steps =   10

There is 1 parameter to be scanned.
There will be   10 constrained geometry optimizations.


         *************************************************************
         *               RELAXED SURFACE SCAN STEP   1               *
         *                                                           *
         *   Dihedral (  3,   2,   1,   0)  :   6.00000000           *
         *************************************************************

Geometry optimization settings:
Update method            Update   .... BFGS
Choice of coordinates    CoordSys .... (2022) Redundant Internals
Initial Hessian          InHess   .... Almloef's Model
Max. no of cycles        MaxIter  .... 78

Convergence Tolerances:
Energy Change            TolE     ....  5.0000e-06 Eh
Max. Gradient            TolMAXG  ....  3.0000e-04 Eh/bohr
RMS Gradient             TolRMSG  ....  1.0000e-04 Eh/bohr
Max. Displacement        TolMAXD  ....  4.0000e-03 bohr
RMS Displacement         TolRMSD  ....  2.0000e-03 bohr
Strict Convergence                .... False

------------------------------------------------------------------------------
                        ORCA OPTIMIZATION COORDINATE SETUP
------------------------------------------------------------------------------

The optimization will be done in redundant internal coordinates (2022)
Making redundant internal coordinates   ...  (2022 redundants) done
Evaluating the initial hessian          ...  (Almloef) done
Evaluating the coordinates              ...  done
Calculating the B-matrix                .... done
Calculating the G-matrix                .... done
Diagonalizing the G-matrix              .... done
Small eigenvalue found = 3.140e-03
Small eigenvalue found = 1.868e-02
Small eigenvalue found = 2.313e-02
The first mode is                       ....   57
The number of degrees of freedom        ....   72
Storing new coordinates                 .... done

    -----------------------------------------------------------------
                    Redundant Internal Coordinates


    -----------------------------------------------------------------
         Definition                    Initial Value    Approx d2E/dq
    -----------------------------------------------------------------
      1. B(C   1,C   0)                  1.4622         0.479291   
      2. B(C   2,C   1)                  1.3352         0.764027   
      3. B(C   3,C   2)                  1.4622         0.479216   
      4. B(C   4,C   3)                  1.3945         0.614551   
      5. B(C   5,C   4)                  1.3813         0.645007   
      6. B(C   6,C   5)                  1.3857         0.634719   
      7. B(C   7,C   6)                  1.3847         0.637013   
      8. B(C   8,C   3)                  1.3941         0.615356   
      9. B(C   8,C   7)                  1.3822         0.642858   
     10. B(C   9,C   0)                  1.3945         0.614524   
     11. B(C  10,C   9)                  1.3813         0.645000   
     12. B(C  11,C  10)                  1.3857         0.634768   
     13. B(C  12,C  11)                  1.3847         0.637020   
     14. B(C  13,C   0)                  1.3942         0.615268   
     15. B(C  13,C  12)                  1.3822         0.642872   
     16. B(H  14,C   1)                  1.0839         0.368234   
     17. B(H  15,C   2)                  1.0839         0.368214   
     18. B(H  16,C   4)                  1.0798         0.373818   
     19. B(H  17,C   5)                  1.0804         0.373034   
     20. B(H  18,C   6)                  1.0801         0.373444   
     21. B(H  19,C   7)                  1.0805         0.372832   
     22. B(H  20,C   8)                  1.0812         0.371905   
     23. B(H  21,C   9)                  1.0799         0.373755   
     24. B(H  22,C  10)                  1.0804         0.372970   
     25. B(H  23,C  11)                  1.0801         0.373435   
     26. B(H  24,C  12)                  1.0806         0.372818   
     27. B(H  25,C  13)                  1.0812         0.371892   
     28. A(C   1,C   0,C   9)          121.6972         0.413883   
     29. A(C   1,C   0,C  13)          119.6420         0.413972   
     30. A(C   9,C   0,C  13)          118.6124         0.432777   
     31. A(C   2,C   1,H  14)          118.3886         0.367088   
     32. A(C   0,C   1,C   2)          127.0003         0.430297   
     33. A(C   0,C   1,H  14)          114.6069         0.339234   
     34. A(C   3,C   2,H  15)          114.6123         0.339222   
     35. A(C   1,C   2,C   3)          126.9924         0.430285   
     36. A(C   1,C   2,H  15)          118.3913         0.367085   
     37. A(C   2,C   3,C   4)          121.6844         0.413875   
     38. A(C   2,C   3,C   8)          119.6495         0.413971   
     39. A(C   4,C   3,C   8)          118.6176         0.432792   
     40. A(C   3,C   4,C   5)          120.5273         0.436473   
     41. A(C   3,C   4,H  16)          119.4160         0.354620   
     42. A(C   5,C   4,H  16)          120.0527         0.357544   
     43. A(C   4,C   5,C   6)          120.3247         0.439022   
     44. A(C   4,C   5,H  17)          119.7057         0.357417   
     45. A(C   6,C   5,H  17)          119.9693         0.356442   
     46. A(C   5,C   6,C   7)          119.6698         0.438035   
     47. A(C   5,C   6,H  18)          120.1761         0.356508   
     48. A(C   7,C   6,H  18)          120.1523         0.356727   
     49. A(C   6,C   7,C   8)          120.1170         0.439043   
     50. A(C   6,C   7,H  19)          120.0457         0.356627   
     51. A(C   8,C   7,H  19)          119.8364         0.357181   
     52. A(C   7,C   8,H  20)          119.9586         0.357030   
     53. A(C   3,C   8,C   7)          120.7191         0.436314   
     54. A(C   3,C   8,H  20)          119.3143         0.354391   
     55. A(C   0,C   9,H  21)          119.4172         0.354608   
     56. A(C  10,C   9,H  21)          120.0493         0.357533   
     57. A(C   0,C   9,C  10)          120.5294         0.436469   
     58. A(C   9,C  10,C  11)          120.3259         0.439027   
     59. A(C   9,C  10,H  22)          119.7043         0.357406   
     60. A(C  11,C  10,H  22)          119.9695         0.356436   
     61. A(C  10,C  11,H  23)          120.1756         0.356511   
     62. A(C  12,C  11,H  23)          120.1531         0.356726   
     63. A(C  10,C  11,C  12)          119.6693         0.438042   
     64. A(C  11,C  12,C  13)          120.1166         0.439046   
     65. A(C  11,C  12,H  24)          120.0465         0.356626   
     66. A(C  13,C  12,H  24)          119.8360         0.357180   
     67. A(C   0,C  13,C  12)          120.7222         0.436304   
     68. A(C   0,C  13,H  25)          119.3143         0.354380   
     69. A(C  12,C  13,H  25)          119.9560         0.357029   
     70. D(C   2,C   1,C   0,C  13)   -142.6634         0.015640   
     71. D(C   2,C   1,C   0,C   9)     39.9038         0.015640   
     72. D(H  14,C   1,C   0,C  13)     38.1029         0.015640   
     73. D(H  14,C   1,C   0,C   9)   -139.3298         0.015640   
     74. D(H  15,C   2,C   1,C   0)   -174.7669         0.041781   
     75. D(C   3,C   2,C   1,C   0)      6.0000         0.041781 C 
     76. D(C   3,C   2,C   1,H  14)   -174.7920         0.041781   
     77. D(H  15,C   2,C   1,H  14)      4.4411         0.041781   
     78. D(C   4,C   3,C   2,H  15)   -139.2007         0.015635   
     79. D(C   4,C   3,C   2,C   1)     40.0573         0.015635   
     80. D(C   8,C   3,C   2,H  15)     38.2321         0.015635   
     81. D(C   8,C   3,C   2,C   1)   -142.5099         0.015635   
     82. D(C   5,C   4,C   3,C   2)    178.7766         0.026106   
     83. D(C   5,C   4,C   3,C   8)      1.3181         0.026106   
     84. D(H  16,C   4,C   3,C   2)     -0.5030         0.026106   
     85. D(H  16,C   4,C   3,C   8)   -177.9614         0.026106   
     86. D(C   6,C   5,C   4,C   3)     -0.0242         0.028936   
     87. D(C   6,C   5,C   4,H  16)    179.2507         0.028936   
     88. D(H  17,C   5,C   4,C   3)   -179.8364         0.028936   
     89. D(H  17,C   5,C   4,H  16)     -0.5614         0.028936   
     90. D(C   7,C   6,C   5,C   4)     -0.7631         0.027960   
     91. D(C   7,C   6,C   5,H  17)    179.0486         0.027960   
     92. D(H  18,C   6,C   5,C   4)    179.7281         0.027960   
     93. D(H  18,C   6,C   5,H  17)     -0.4602         0.027960   
     94. D(C   8,C   7,C   6,C   5)      0.2298         0.028176   
     95. D(C   8,C   7,C   6,H  18)    179.7387         0.028176   
     96. D(H  19,C   7,C   6,C   5)   -179.4225         0.028176   
     97. D(H  19,C   7,C   6,H  18)      0.0864         0.028176   
     98. D(C   7,C   8,C   3,C   2)   -179.3667         0.026179   
     99. D(C   7,C   8,C   3,C   4)     -1.8552         0.026179   
    100. D(H  20,C   8,C   3,C   2)      1.6576         0.026179   
    101. D(H  20,C   8,C   3,C   4)    179.1691         0.026179   
    102. D(C   3,C   8,C   7,C   6)      1.0964         0.028731   
    103. D(C   3,C   8,C   7,H  19)   -179.2507         0.028731   
    104. D(H  20,C   8,C   7,C   6)   -179.9345         0.028731   
    105. D(H  20,C   8,C   7,H  19)     -0.2815         0.028731   
    106. D(C  10,C   9,C   0,C   1)    178.7744         0.026104   
    107. D(C  10,C   9,C   0,C  13)      1.3161         0.026104   
    108. D(H  21,C   9,C   0,C   1)     -0.4920         0.026104   
    109. D(H  21,C   9,C   0,C  13)   -177.9503         0.026104   
    110. D(C  11,C  10,C   9,C   0)     -0.0276         0.028935   
    111. D(C  11,C  10,C   9,H  21)    179.2342         0.028935   
    112. D(H  22,C  10,C   9,C   0)   -179.8284         0.028935   
    113. D(H  22,C  10,C   9,H  21)     -0.5667         0.028935   
    114. D(C  12,C  11,C  10,C   9)     -0.7579         0.027965   
    115. D(C  12,C  11,C  10,H  22)    179.0424         0.027965   
    116. D(H  23,C  11,C  10,C   9)    179.7453         0.027965   
    117. D(H  23,C  11,C  10,H  22)     -0.4544         0.027965   
    118. D(C  13,C  12,C  11,C  10)      0.2281         0.028177   
    119. D(C  13,C  12,C  11,H  23)    179.7249         0.028177   
    120. D(H  24,C  12,C  11,C  10)   -179.4143         0.028177   
    121. D(H  24,C  12,C  11,H  23)      0.0826         0.028177   
    122. D(C  12,C  13,C   0,C   1)   -179.3616         0.026171   
    123. D(H  25,C  13,C  12,C  11)   -179.9120         0.028732   
    124. D(H  25,C  13,C   0,C   1)      1.6368         0.026171   
    125. D(H  25,C  13,C   0,C   9)    179.1487         0.026171   
    126. D(C   0,C  13,C  12,C  11)      1.0927         0.028732   
    127. D(C  12,C  13,C   0,C   9)     -1.8497         0.026171   
    128. D(C   0,C  13,C  12,H  24)   -179.2642         0.028732   
    129. D(H  25,C  13,C  12,H  24)     -0.2689         0.028732   
    -----------------------------------------------------------------

Number of atoms                         .... 26
Number of degrees of freedom            .... 129


         *************************************************************
         *                GEOMETRY OPTIMIZATION CYCLE   1            *
         *************************************************************
---------------------------------
CARTESIAN COORDINATES (ANGSTROEM)
---------------------------------
  C      1.380493   -0.496858    0.930938
  C      0.423270   -0.243235    2.006733
  C     -0.817866    0.233154    1.882257
  C     -1.539749    0.493199    0.637539
  C     -1.456676   -0.373118   -0.452061
  C     -2.168715   -0.117271   -1.607755
  C     -2.976052    1.005335   -1.698067
  C     -3.079307    1.864158   -0.616754
  C     -2.376395    1.604529    0.544754
  C      1.515420    0.373658   -0.150110
  C      2.445284    0.123647   -1.140534
  C      3.257139   -0.997167   -1.071204
  C      3.143650   -1.860171    0.005741
  C      2.221510   -1.606429    1.003665
  H      0.793176   -0.464069    3.001361
  H     -1.379855    0.449104    2.783616
  H     -0.838331   -1.255595   -0.382040
  H     -2.096614   -0.798796   -2.442967
  H     -3.528342    1.205393   -2.604466
  H     -3.714363    2.736291   -0.677253
  H     -2.459731    2.276264    1.387882
  H      0.893576    1.254970   -0.202235
  H      2.540460    0.808506   -1.970753
  H      3.980577   -1.192486   -1.849091
  H      3.780215   -2.730892    0.070733
  H      2.136075   -2.281257    1.844121

----------------------------
CARTESIAN COORDINATES (A.U.)
----------------------------
  NO LB      ZA    FRAG     MASS         X           Y           Z
   0 C     6.0000    0    12.011    2.608754   -0.938926    1.759218
   1 C     6.0000    0    12.011    0.799865   -0.459647    3.792176
   2 C     6.0000    0    12.011   -1.545543    0.440598    3.556950
   3 C     6.0000    0    12.011   -2.909704    0.932011    1.204774
   4 C     6.0000    0    12.011   -2.752719   -0.705091   -0.854272
   5 C     6.0000    0    12.011   -4.098277   -0.221611   -3.038216
   6 C     6.0000    0    12.011   -5.623924    1.899808   -3.208882
   7 C     6.0000    0    12.011   -5.819047    3.522749   -1.165497
   8 C     6.0000    0    12.011   -4.490737    3.032120    1.029437
   9 C     6.0000    0    12.011    2.863728    0.706112   -0.283666
  10 C     6.0000    0    12.011    4.620917    0.233658   -2.155296
  11 C     6.0000    0    12.011    6.155101   -1.884372   -2.024282
  12 C     6.0000    0    12.011    5.940638   -3.515214    0.010849
  13 C     6.0000    0    12.011    4.198046   -3.035712    1.896652
  14 H     1.0000    0     1.008    1.498885   -0.876964    5.671750
  15 H     1.0000    0     1.008   -2.607549    0.848684    5.260271
  16 H     1.0000    0     1.008   -1.584217   -2.372730   -0.721951
  17 H     1.0000    0     1.008   -3.962026   -1.509506   -4.616538
  18 H     1.0000    0     1.008   -6.667601    2.277862   -4.921727
  19 H     1.0000    0     1.008   -7.019129    5.170840   -1.279822
  20 H     1.0000    0     1.008   -4.648219    4.301515    2.622716
  21 H     1.0000    0     1.008    1.688613    2.371550   -0.382168
  22 H     1.0000    0     1.008    4.800773    1.527855   -3.724183
  23 H     1.0000    0     1.008    7.522201   -2.253471   -3.494275
  24 H     1.0000    0     1.008    7.143571   -5.160638    0.133665
  25 H     1.0000    0     1.008    4.036597   -4.310950    3.484883

--------------------------------
INTERNAL COORDINATES (ANGSTROEM)
--------------------------------
 C      0   0   0     0.000000000000     0.00000000     0.00000000
 C      1   0   0     1.462167911555     0.00000000     0.00000000
 C      2   1   0     1.335237289259   126.99998335     0.00000000
 C      3   2   1     1.462210699340   126.99211677     6.15530820
 C      4   3   2     1.394500806101   121.68441962    40.01907957
 C      5   4   3     1.381334171892   120.52731893   178.77655701
 C      6   5   4     1.385710995198   120.32472198   359.97581079
 C      7   6   5     1.384728780873   119.66980693   359.23687259
 C      8   7   6     1.382242640016   120.11701159     0.22976699
 C      1   2   3     1.394512805815   121.69714968    39.86566700
 C     10   1   2     1.381337254155   120.52939967   178.77442947
 C     11  10   1     1.385689901440   120.32590697   359.97243150
 C     12  11  10     1.384725713135   119.66930897   359.24206771
 C     13  12  11     1.382236690501   120.11659952     0.22806617
 H      2   1   3     1.083919513034   114.60603193   180.84267813
 H      3   2   1     1.083934595168   118.39158227   185.30950345
 H      5   4   3     1.079823118174   119.41601268   359.49704200
 H      6   5   4     1.080394504882   119.70568601   180.16363206
 H      7   6   5     1.080095247179   120.17607730   179.72810715
 H      8   7   6     1.080541603115   120.04566209   180.57751919
 H      9   8   7     1.081219327511   119.95864177   180.06553981
 H     10   1   2     1.079869029368   119.41719877   359.50804250
 H     11  10   1     1.080441255863   119.70427720   180.17159179
 H     12  11  10     1.080101754541   120.17562704   179.74533596
 H     13  12  11     1.080551954284   120.04643577   180.58570614
 H     14  13  12     1.081228774881   119.95595932   180.08797799

---------------------------
INTERNAL COORDINATES (A.U.)
---------------------------
 C      0   0   0     0.000000000000     0.00000000     0.00000000
 C      1   0   0     2.763096914647     0.00000000     0.00000000
 C      2   1   0     2.523232800500   126.99998335     0.00000000
 C      3   2   1     2.763177771842   126.99211677     6.15530820
 C      4   3   2     2.635224617063   121.68441962    40.01907957
 C      5   4   3     2.610343284302   120.52731893   178.77655701
 C      6   5   4     2.618614281688   120.32472198   359.97581079
 C      7   6   5     2.616758165608   119.66980693   359.23687259
 C      8   7   6     2.612060040259   120.11701159     0.22976699
 C      1   2   3     2.635247293237   121.69714968    39.86566700
 C     10   1   2     2.610349108936   120.52939967   178.77442947
 C     11  10   1     2.618574420262   120.32590697   359.97243150
 C     12  11  10     2.616752368424   119.66930897   359.24206771
 C     13  12  11     2.612048797305   120.11659952     0.22806617
 H      2   1   3     2.048311030848   114.60603193   180.84267813
 H      3   2   1     2.048339531950   118.39158227   185.30950345
 H      5   4   3     2.040569966426   119.41601268   359.49704200
 H      6   5   4     2.041649730820   119.70568601   180.16363206
 H      7   6   5     2.041084215718   120.17607730   179.72810715
 H      8   7   6     2.041927706195   120.04566209   180.57751919
 H      9   8   7     2.043208419698   119.95864177   180.06553981
 H     10   1   2     2.040656726010   119.41719877   359.50804250
 H     11  10   1     2.041738077371   119.70427720   180.17159179
 H     12  11  10     2.041096512850   120.17562704   179.74533596
 H     13  12  11     2.041947267071   120.04643577   180.58570614
 H     14  13  12     2.043226272641   119.95595932   180.08797799

Calling /proj/scgrp/users/x_rompe/ExtOptORCA-OpenQP/oqp_orca_wrapper stilbene_scan_EXT.extinp.tmp -s 1 -b 6-31g*  ... 

MPI startup(): PMI server not found. Please set I_MPI_PMI_LIBRARY variable if it is not a singleton case.
input.charge=0
input.basis=6-31g*
input.functional=bhhlyp
input.method=tdhf
input.runtype=grad
input.system=stilbene_scan.xyz
input.system2=
input.d4=False
guess.type=huckel
guess.file=
guess.file2=
guess.save_mol=True
guess.continue_geom=False
scf.type=rohf
scf.maxit=100
scf.forced_attempt=1
scf.maxdiis=7
scf.diis_reset_mod=10
scf.diis_reset_conv=0.005
scf.diis_method_threshold=2.0
scf.diis_type=cdiis
scf.vdiis_cdiis_switch=0.3
scf.vdiis_vshift_switch=0.003
scf.vshift_cdiis_switch=0.3
scf.vshift=0.0
scf.mom=False
scf.mom_switch=0.003
scf.pfon=False
scf.pfon_start_temp=2000.0
scf.pfon_cooling_rate=50.0
scf.pfon_nsmear=5.0
scf.multiplicity=3
scf.conv=1.0e-6
scf.incremental=True
scf.init_scf=no
scf.init_it=0
scf.save_molden=True
dftgrid.hfscale=-1.0
dftgrid.cam_flag=False
dftgrid.cam_alpha=-1.0
dftgrid.cam_beta=-1.0
dftgrid.cam_mu=-1.0
dftgrid.rad_type=mhl
dftgrid.rad_npts=50
dftgrid.ang_npts=194
dftgrid.partfun=ssf
dftgrid.pruned=SG1
dftgrid.grid_ao_pruned=True
dftgrid.grid_ao_threshold=1.0e-15
dftgrid.grid_ao_sparsity_ratio=0.9
tdhf.type=mrsf
tdhf.maxit=50
tdhf.maxit_zv=50
tdhf.multiplicity=1
tdhf.conv=1.0e-6
tdhf.nstate=3
tdhf.zvconv=1.0e-6
tdhf.nvdav=50
tdhf.tlf=2
tdhf.hfscale=-1.0
tdhf.cam_alpha=-1.0
tdhf.cam_beta=-1.0
tdhf.cam_mu=-1.0
tdhf.spc_coco=-1.0
tdhf.spc_ovov=-1.0
tdhf.spc_coov=-1.0
tdhf.conf_threshold=5.0e-2
properties.scf_prop=el_mom,mulliken
properties.td_prop=False
properties.grad=1
properties.nac=
properties.soc=
properties.export=True
properties.title=
properties.back_door=False
optimize.lib=scipy
optimize.optimizer=bfgs
optimize.step_size=0.1
optimize.step_tol=1e-2
optimize.maxit=30
optimize.mep_maxit=10
optimize.rmsd_grad=1e-4
optimize.rmsd_step=1e-3
optimize.max_grad=3e-4
optimize.max_step=2e-3
optimize.istate=1
optimize.jstate=2
optimize.kstate=3
optimize.imult=1
optimize.jmult=3
optimize.energy_shift=1e-6
optimize.energy_gap=1e-5
optimize.meci_search=penalty
optimize.pen_sigma=1.0
optimize.pen_alpha=0.0
optimize.pen_incre=1.0
optimize.gap_weight=1.0
optimize.init_scf=False
dlfind.printl=2
dlfind.icoord=3
dlfind.iopt=3
dlfind.ims=0
hess.type=numerical
hess.state=0
hess.dx=0.01
hess.nproc=1
hess.read=False
hess.restart=False
hess.temperature=298.15
hess.clean=False
nac.type=numerical
nac.dt=1
nac.dx=0.0001
nac.bp=False
nac.nproc=1
nac.restart=False
nac.clean=False
nac.states=1 2
nac.align=reorder
basis_set.library=
tests.exception=False
functional=bhhlyp

External program completed successfully in 136.880 sec

-------------------------------------------------   --------------------
FINAL SINGLE POINT ENERGY (From external program)      -540.359761670000
-------------------------------------------------   --------------------


------------------
CARTESIAN GRADIENT
------------------

   1   C   :   -0.002240357    0.000397042   -0.001165269
   2   C   :    0.001706106    0.000416619   -0.003966593
   3   C   :   -0.000904859   -0.000451704   -0.004197225
   4   C   :    0.002503256   -0.000328578   -0.000724713
   5   C   :    0.001251370    0.003126580    0.002051759
   6   C   :   -0.001061702    0.002565225    0.001924700
   7   C   :    0.002060063   -0.001384558    0.002896419
   8   C   :    0.002618961   -0.003048912    0.000375047
   9   C   :    0.000215081   -0.000922538   -0.001349418
  10   C   :   -0.001642848   -0.003181578    0.001732280
  11   C   :    0.000679976   -0.002601558    0.002119016
  12   C   :   -0.002726732    0.001373576    0.002442018
  13   C   :   -0.002677917    0.003059006   -0.000106835
  14   C   :    0.000030970    0.000888954   -0.001383851
  15   H   :    0.002812229   -0.000713396    0.001096805
  16   H   :   -0.002980268    0.000715197    0.000522606
  17   H   :    0.002071203   -0.002263505    0.000436775
  18   H   :    0.000166564   -0.000822969   -0.001278787
  19   H   :   -0.000654191    0.000312427   -0.001263495
  20   H   :   -0.000996907    0.001243401   -0.000104574
  21   H   :    0.000074153    0.001156564    0.001153743
  22   H   :   -0.002159467    0.002304091    0.000027969
  23   H   :    0.000096325    0.000847883   -0.001311007
  24   H   :    0.000891148   -0.000306051   -0.001109548
  25   H   :    0.001003521   -0.001249211    0.000094938
  26   H   :   -0.000291746   -0.001155482    0.001126480

Difference to translation invariance:
           :   -0.0001560667   -0.0000234770    0.0000392405

Difference to rotation invariance:
           :   -0.0001153858   -0.0000986724    0.0001334190

Norm of the Cartesian gradient     ...    0.0152274974
RMS gradient                       ...    0.0017241746
MAX gradient                       ...    0.0041972254
------------------------------------------------------------------------------
                         ORCA GEOMETRY RELAXATION STEP
------------------------------------------------------------------------------

Reading the OPT-File                    .... done
Getting information on internals        .... done
Copying old internal coords+grads       .... done
Making the new internal coordinates     .... (2022 redundants) done
Validating the new internal coordinates .... (2022 redundants) done
Calculating the B-matrix                .... done
Calculating the G,G- and P matrices     .... done
Transforming gradient to internals      .... done
Projecting the internal gradient        .... done
Number of atoms                         ....  26
Number of internal coordinates          .... 129
Current Energy                          ....  -540.359761670 Eh
Current gradient norm                   ....     0.015227497 Eh/bohr
Maximum allowed component of the step   ....  0.300
Current trust radius                    ....  0.300
Evaluating the initial hessian          ....  (Almloef) done
Projecting the Hessian                  .... done
Forming the augmented Hessian           .... done
Diagonalizing the augmented Hessian     .... done
Last element of RFO vector              ....  0.980343629
Lowest eigenvalues of augmented Hessian:
 -0.003419869  0.015637848  0.016027659  0.023032357  0.023300442
Length of the computed step             ....  0.201253579
The final length of the internal step   ....  0.201253579
Converting the step to Cartesian space:
 Initial RMS(Int)=    0.0177193896
Transforming coordinates:
 Iter   0:  RMS(Cart)=    0.1896211976 RMS(Int)=    0.0177998675
 Iter   5:  RMS(Cart)=    0.0000002040 RMS(Int)=    0.0000000975
Imposing constraints:
 Iter   0:  RMS(Cart)=    0.0000201998 RMS(Int)=    0.0000278824
 Iter   5:  RMS(Cart)=    0.0000004266 RMS(Int)=    0.0000005888
CONVERGED
done
Storing new coordinates                 .... done

                                .--------------------.
          ----------------------|Geometry convergence|-------------------------
          Item                value                   Tolerance       Converged
          ---------------------------------------------------------------------
          RMS gradient        0.0029774900            0.0001000000      NO
          MAX gradient        0.0158332855            0.0003000000      NO
          RMS step            0.0177193896            0.0020000000      NO
          MAX step            0.0803834319            0.0040000000      NO
          ........................................................
          Max(Bonds)      0.0085      Max(Angles)    2.22
          Max(Dihed)        4.61      Max(Improp)    0.00
          ---------------------------------------------------------------------

The optimization has not yet converged - more geometry cycles are needed


    ---------------------------------------------------------------------------
                         Redundant Internal Coordinates
                            (Angstroem and degrees)

        Definition                    Value    dE/dq     Step     New-Value
    ----------------------------------------------------------------------------
     1. B(C   1,C   0)                1.4622 -0.007737  0.0085    1.4707   
     2. B(C   2,C   1)                1.3352 -0.004199  0.0029    1.3381   
     3. B(C   3,C   2)                1.4622 -0.007664  0.0084    1.4706   
     4. B(C   4,C   3)                1.3945 -0.003415  0.0030    1.3975   
     5. B(C   5,C   4)                1.3813 -0.001327  0.0011    1.3824   
     6. B(C   6,C   5)                1.3857 -0.002098  0.0017    1.3874   
     7. B(C   7,C   6)                1.3847 -0.001034  0.0008    1.3855   
     8. B(C   8,C   3)                1.3941 -0.002121  0.0018    1.3960   
     9. B(C   8,C   7)                1.3822 -0.002125  0.0017    1.3840   
    10. B(C   9,C   0)                1.3945 -0.003422  0.0030    1.3975   
    11. B(C  10,C   9)                1.3813 -0.001352  0.0011    1.3825   
    12. B(C  11,C  10)                1.3857 -0.002142  0.0018    1.3874   
    13. B(C  12,C  11)                1.3847 -0.001033  0.0008    1.3855   
    14. B(C  13,C   0)                1.3942 -0.002128  0.0018    1.3960   
    15. B(C  13,C  12)                1.3822 -0.002182  0.0018    1.3840   
    16. B(H  14,C   1)                1.0839  0.002112 -0.0030    1.0809   
    17. B(H  15,C   2)                1.0839  0.002118 -0.0030    1.0809   
    18. B(H  16,C   4)                1.0798  0.003066 -0.0043    1.0755   
    19. B(H  17,C   5)                1.0804  0.001519 -0.0021    1.0783   
    20. B(H  18,C   6)                1.0801  0.001451 -0.0020    1.0781   
    21. B(H  19,C   7)                1.0805  0.001593 -0.0022    1.0783   
    22. B(H  20,C   8)                1.0812  0.001613 -0.0023    1.0789   
    23. B(H  21,C   9)                1.0799  0.003120 -0.0044    1.0755   
    24. B(H  22,C  10)                1.0804  0.001556 -0.0022    1.0783   
    25. B(H  23,C  11)                1.0801  0.001457 -0.0020    1.0781   
    26. B(H  24,C  12)                1.0806  0.001607 -0.0023    1.0783   
    27. B(H  25,C  13)                1.0812  0.001618 -0.0023    1.0789   
    28. A(C   1,C   0,C   9)          121.70 -0.005605    0.73    122.43   
    29. A(C   1,C   0,C  13)          119.64  0.002758   -0.42    119.23   
    30. A(C   9,C   0,C  13)          118.61  0.002886   -0.40    118.21   
    31. A(C   2,C   1,H  14)          118.39  0.010196   -1.43    116.96   
    32. A(C   0,C   1,C   2)          127.00 -0.015829    2.22    129.22   
    33. A(C   0,C   1,H  14)          114.61  0.005636   -0.78    113.83   
    34. A(C   3,C   2,H  15)          114.61  0.005634   -0.78    113.83   
    35. A(C   1,C   2,C   3)          126.99 -0.015804    2.22    129.21   
    36. A(C   1,C   2,H  15)          118.39  0.010174   -1.42    116.97   
    37. A(C   2,C   3,C   4)          121.68 -0.005566    0.73    122.41   
    38. A(C   2,C   3,C   8)          119.65  0.002764   -0.42    119.23   
    39. A(C   4,C   3,C   8)          118.62  0.002840   -0.40    118.22   
    40. A(C   3,C   4,C   5)          120.53 -0.001194    0.17    120.70   
    41. A(C   3,C   4,H  16)          119.42  0.000223   -0.03    119.39   
    42. A(C   5,C   4,H  16)          120.05  0.000972   -0.15    119.91   
    43. A(C   4,C   5,C   6)          120.32 -0.000451    0.06    120.38   
    44. A(C   4,C   5,H  17)          119.71  0.000317   -0.04    119.66   
    45. A(C   6,C   5,H  17)          119.97  0.000135   -0.02    119.95   
    46. A(C   5,C   6,C   7)          119.67  0.000635   -0.10    119.57   
    47. A(C   5,C   6,H  18)          120.18 -0.000333    0.05    120.23   
    48. A(C   7,C   6,H  18)          120.15 -0.000300    0.05    120.20   
    49. A(C   6,C   7,C   8)          120.12  0.000175   -0.03    120.08   
    50. A(C   6,C   7,H  19)          120.05 -0.000125    0.02    120.07   
    51. A(C   8,C   7,H  19)          119.84 -0.000050    0.01    119.85   
    52. A(C   7,C   8,H  20)          119.96  0.000983   -0.13    119.82   
    53. A(C   3,C   8,C   7)          120.72 -0.001994    0.28    121.00   
    54. A(C   3,C   8,H  20)          119.31  0.001010   -0.14    119.17   
    55. A(C   0,C   9,H  21)          119.42  0.000228   -0.03    119.39   
    56. A(C  10,C   9,H  21)          120.05  0.000991   -0.15    119.90   
    57. A(C   0,C   9,C  10)          120.53 -0.001217    0.17    120.70   
    58. A(C   9,C  10,C  11)          120.33 -0.000475    0.06    120.39   
    59. A(C   9,C  10,H  22)          119.70  0.000338   -0.05    119.66   
    60. A(C  11,C  10,H  22)          119.97  0.000138   -0.02    119.95   
    61. A(C  10,C  11,H  23)          120.18 -0.000358    0.05    120.23   
    62. A(C  12,C  11,H  23)          120.15 -0.000320    0.05    120.20   
    63. A(C  10,C  11,C  12)          119.67  0.000680   -0.11    119.56   
    64. A(C  11,C  12,C  13)          120.12  0.000164   -0.03    120.08   
    65. A(C  11,C  12,H  24)          120.05 -0.000125    0.02    120.07   
    66. A(C  13,C  12,H  24)          119.84 -0.000039    0.01    119.84   
    67. A(C   0,C  13,C  12)          120.72 -0.002028    0.28    121.01   
    68. A(C   0,C  13,H  25)          119.31  0.001034   -0.14    119.17   
    69. A(C  12,C  13,H  25)          119.96  0.000993   -0.14    119.82   
    70. D(C   2,C   1,C   0,C  13)   -142.66 -0.000217    2.30   -140.36   
    71. D(C   2,C   1,C   0,C   9)     39.90 -0.001342    4.61     44.51   
    72. D(H  14,C   1,C   0,C  13)     38.10 -0.000633    1.33     39.44   
    73. D(H  14,C   1,C   0,C   9)   -139.33 -0.001758    3.63   -135.70   
    74. D(H  15,C   2,C   1,C   0)   -174.77 -0.001743    1.00   -173.77   
    75. D(C   3,C   2,C   1,C   0)      6.00 -0.002142    0.00      6.00 C 
    76. D(C   3,C   2,C   1,H  14)   -174.79 -0.001752    1.01   -173.78   
    77. D(H  15,C   2,C   1,H  14)      4.44 -0.001353    2.01      6.45   
    78. D(C   4,C   3,C   2,H  15)   -139.20 -0.001749    3.61   -135.59   
    79. D(C   4,C   3,C   2,C   1)     40.06 -0.001325    4.57     44.63   
    80. D(C   8,C   3,C   2,H  15)     38.23 -0.000649    1.36     39.60   
    81. D(C   8,C   3,C   2,C   1)   -142.51 -0.000225    2.32   -140.19   
    82. D(C   5,C   4,C   3,C   2)    178.78  0.000685   -1.30    177.48   
    83. D(C   5,C   4,C   3,C   8)      1.32 -0.000405    0.93      2.24   
    84. D(H  16,C   4,C   3,C   2)     -0.50  0.000531   -1.07     -1.58   
    85. D(H  16,C   4,C   3,C   8)   -177.96 -0.000559    1.16   -176.81   
    86. D(C   6,C   5,C   4,C   3)     -0.02  0.000200   -0.37     -0.39   
    87. D(C   6,C   5,C   4,H  16)    179.25  0.000349   -0.60    178.65   
    88. D(H  17,C   5,C   4,C   3)   -179.84 -0.000019    0.01   -179.83   
    89. D(H  17,C   5,C   4,H  16)     -0.56  0.000130   -0.22     -0.79   
    90. D(C   7,C   6,C   5,C   4)     -0.76  0.000104   -0.24     -1.01   
    91. D(C   7,C   6,C   5,H  17)    179.05  0.000324   -0.62    178.43   
    92. D(H  18,C   6,C   5,C   4)    179.73 -0.000142    0.24    179.97   
    93. D(H  18,C   6,C   5,H  17)     -0.46  0.000078   -0.14     -0.60   
    94. D(C   8,C   7,C   6,C   5)      0.23 -0.000152    0.27      0.50   
    95. D(C   8,C   7,C   6,H  18)    179.74  0.000095   -0.21    179.53   
    96. D(H  19,C   7,C   6,C   5)   -179.42 -0.000204    0.42   -179.01   
    97. D(H  19,C   7,C   6,H  18)      0.09  0.000043   -0.06      0.02   
    98. D(C   7,C   8,C   3,C   2)   -179.37 -0.000471    1.25   -178.11   
    99. D(C   7,C   8,C   3,C   4)     -1.86  0.000379   -0.90     -2.75   
   100. D(H  20,C   8,C   3,C   2)      1.66 -0.000376    1.06      2.72   
   101. D(H  20,C   8,C   3,C   4)    179.17  0.000474   -1.09    178.08   
   102. D(C   3,C   8,C   7,C   6)      1.10 -0.000135    0.31      1.41   
   103. D(C   3,C   8,C   7,H  19)   -179.25 -0.000083    0.17   -179.08   
   104. D(H  20,C   8,C   7,C   6)   -179.93 -0.000231    0.51   -179.43   
   105. D(H  20,C   8,C   7,H  19)     -0.28 -0.000179    0.36      0.08   
   106. D(C  10,C   9,C   0,C   1)    178.77  0.000713   -1.36    177.42   
   107. D(C  10,C   9,C   0,C  13)      1.32 -0.000401    0.92      2.24   
   108. D(H  21,C   9,C   0,C   1)     -0.49  0.000559   -1.13     -1.62   
   109. D(H  21,C   9,C   0,C  13)   -177.95 -0.000555    1.15   -176.80   
   110. D(C  11,C  10,C   9,C   0)     -0.03  0.000209   -0.39     -0.41   
   111. D(C  11,C  10,C   9,H  21)    179.23  0.000358   -0.62    178.62   
   112. D(H  22,C  10,C   9,C   0)   -179.83 -0.000015   -0.00   -179.83   
   113. D(H  22,C  10,C   9,H  21)     -0.57  0.000134   -0.23     -0.80   
   114. D(C  12,C  11,C  10,C   9)     -0.76  0.000084   -0.21     -0.96   
   115. D(C  12,C  11,C  10,H  22)    179.04  0.000310   -0.59    178.45   
   116. D(H  23,C  11,C  10,C   9)    179.75 -0.000143    0.24    179.98   
   117. D(H  23,C  11,C  10,H  22)     -0.45  0.000082   -0.15     -0.60   
   118. D(C  13,C  12,C  11,C  10)      0.23 -0.000133    0.24      0.47   
   119. D(C  13,C  12,C  11,H  23)    179.72  0.000094   -0.20    179.52   
   120. D(H  24,C  12,C  11,C  10)   -179.41 -0.000188    0.39   -179.02   
   121. D(H  24,C  12,C  11,H  23)      0.08  0.000039   -0.05      0.03   
   122. D(C  12,C  13,C   0,C   1)   -179.36 -0.000499    1.31   -178.05   
   123. D(H  25,C  13,C  12,C  11)   -179.91 -0.000232    0.51   -179.40   
   124. D(H  25,C  13,C   0,C   1)      1.64 -0.000408    1.12      2.76   
   125. D(H  25,C  13,C   0,C   9)    179.15  0.000463   -1.08    178.07   
   126. D(C   0,C  13,C  12,C  11)      1.09 -0.000140    0.32      1.41   
   127. D(C  12,C  13,C   0,C   9)     -1.85  0.000372   -0.89     -2.74   
   128. D(C   0,C  13,C  12,H  24)   -179.26 -0.000086    0.17   -179.09   
   129. D(H  25,C  13,C  12,H  24)     -0.27 -0.000177    0.36      0.09   
    ----------------------------------------------------------------------------

Geometry step timings:
Preparation and reading OPT file:      0.000 s ( 4.500 %)
Internal coordinates            :      0.000 s ( 0.756 %)
B/P matrices and projection     :      0.004 s (40.115 %)
Hessian update/contruction      :      0.001 s ( 8.300 %)
Making the step                 :      0.002 s (20.041 %)
Converting the step to Cartesian:      0.000 s ( 5.255 %)
Storing new data                :      0.000 s ( 0.767 %)
Checking convergence            :      0.000 s ( 0.180 %)
Final printing                  :      0.002 s (19.804 %)
Total time                      :      0.009 s

Time for energy+gradient        :    136.883 s
Time for complete geometry iter :    138.947 s

         *************************************************************
         *                GEOMETRY OPTIMIZATION CYCLE   2            *
         *************************************************************
---------------------------------
CARTESIAN COORDINATES (ANGSTROEM)
---------------------------------
  C      1.439240   -0.496348    0.885015
  C      0.435738   -0.235142    1.927878
  C     -0.814317    0.225614    1.802693
  C     -1.588645    0.492674    0.581300
  C     -1.619052   -0.397432   -0.495600
  C     -2.400204   -0.135732   -1.605743
  C     -3.174326    1.014176   -1.663774
  C     -3.176821    1.891516   -0.591402
  C     -2.402988    1.625121    0.524661
  C      1.682933    0.397902   -0.160886
  C      2.671719    0.141980   -1.092538
  C      3.445119   -1.005989   -0.997764
  C      3.234303   -1.887648    0.050058
  C      2.251374   -1.627088    0.988914
  H      0.778227   -0.457139    2.928772
  H     -1.350380    0.442770    2.715855
  H     -1.038787   -1.301811   -0.449354
  H     -2.413174   -0.835437   -2.426039
  H     -3.782165    1.216040   -2.530948
  H     -3.787833    2.779493   -0.621275
  H     -2.415164    2.306520    1.361124
  H      1.103022    1.301093   -0.228952
  H      2.847171    0.844930   -1.891104
  H      4.215370   -1.203166   -1.725802
  H      3.841199   -2.774337    0.140476
  H      2.097288   -2.311697    1.808485

----------------------------
CARTESIAN COORDINATES (A.U.)
----------------------------
  NO LB      ZA    FRAG     MASS         X           Y           Z
   0 C     6.0000    0    12.011    2.719770   -0.937963    1.672436
   1 C     6.0000    0    12.011    0.823425   -0.444353    3.643162
   2 C     6.0000    0    12.011   -1.538836    0.426349    3.406595
   3 C     6.0000    0    12.011   -3.002104    0.931019    1.098498
   4 C     6.0000    0    12.011   -3.059564   -0.751037   -0.936548
   5 C     6.0000    0    12.011   -4.535729   -0.256495   -3.034414
   6 C     6.0000    0    12.011   -5.998606    1.916515   -3.144077
   7 C     6.0000    0    12.011   -6.003322    3.574446   -1.117588
   8 C     6.0000    0    12.011   -4.540990    3.071034    0.991466
   9 C     6.0000    0    12.011    3.180283    0.751926   -0.304030
  10 C     6.0000    0    12.011    5.048817    0.268303   -2.064597
  11 C     6.0000    0    12.011    6.510331   -1.901043   -1.885501
  12 C     6.0000    0    12.011    6.111947   -3.567139    0.094595
  13 C     6.0000    0    12.011    4.254480   -3.074752    1.868777
  14 H     1.0000    0     1.008    1.470636   -0.863867    5.534578
  15 H     1.0000    0     1.008   -2.551849    0.836714    5.132221
  16 H     1.0000    0     1.008   -1.963022   -2.460065   -0.849156
  17 H     1.0000    0     1.008   -4.560239   -1.578746   -4.584550
  18 H     1.0000    0     1.008   -7.147257    2.297983   -4.782799
  19 H     1.0000    0     1.008   -7.157967    5.252481   -1.174039
  20 H     1.0000    0     1.008   -4.563999    4.358691    2.572152
  21 H     1.0000    0     1.008    2.084409    2.458709   -0.432656
  22 H     1.0000    0     1.008    5.380374    1.596686   -3.573669
  23 H     1.0000    0     1.008    7.965896   -2.273654   -3.261293
  24 H     1.0000    0     1.008    7.258815   -5.242737    0.265461
  25 H     1.0000    0     1.008    3.963300   -4.368475    3.417541

--------------------------------
INTERNAL COORDINATES (ANGSTROEM)
--------------------------------
 C      0   0   0     0.000000000000     0.00000000     0.00000000
 C      1   0   0     1.470649921255     0.00000000     0.00000000
 C      2   1   0     1.338134082533   129.21679493     0.00000000
 C      3   2   1     1.470613926473   129.20545916     6.00000361
 C      4   3   2     1.397471161355   122.39839754    44.63435526
 C      5   4   3     1.382426746122   120.70020063   177.46493476
 C      6   5   4     1.387414665751   120.38227038   359.60270266
 C      7   6   5     1.385536363280   119.56741583   358.99545243
 C      8   7   6     1.383972859990   120.08329726     0.50527456
 C      1   2   3     1.397489869867   122.41492991    44.51601210
 C     10   1   2     1.382450435784   120.70579353   177.40596334
 C     11  10   1     1.387429651080   120.38690807   359.58197372
 C     12  11  10     1.385531650572   119.56094945   359.03717693
 C     13  12  11     1.384013267150   120.08453054     0.47053266
 H      2   1   3     1.080912181427   113.82468360   179.78883327
 H      3   2   1     1.080918806228   116.96405896   186.22642734
 H      5   4   3     1.075522017949   119.38742770   358.41680655
 H      6   5   4     1.078258670450   119.66141320   180.16838931
 H      7   6   5     1.078058263503   120.22730470   179.96737332
 H      8   7   6     1.078300969847   120.06802734   180.99456840
 H      9   8   7     1.078945153986   119.82237802   180.56752600
 H     10   1   2     1.075492297971   119.38798389   358.37038759
 H     11  10   1     1.078253180993   119.65681158   180.16932854
 H     12  11  10     1.078056096342   120.23041933   179.98621606
 H     13  12  11     1.078292418223   120.06875556   180.97547620
 H     14  13  12     1.078947387629   119.81828384   180.59213113

---------------------------
INTERNAL COORDINATES (A.U.)
---------------------------
 C      0   0   0     0.000000000000     0.00000000     0.00000000
 C      1   0   0     2.779125590044     0.00000000     0.00000000
 C      2   1   0     2.528706946454   129.21679493     0.00000000
 C      3   2   1     2.779057569764   129.20545916     6.00000361
 C      4   3   2     2.640837775015   122.39839754    44.63435526
 C      5   4   3     2.612407950378   120.70020063   177.46493476
 C      6   5   4     2.621833752456   120.38227038   359.60270266
 C      7   6   5     2.618284275188   119.56741583   358.99545243
 C      8   7   6     2.615329682161   120.08329726     0.50527456
 C      1   2   3     2.640873128978   122.41492991    44.51601210
 C     10   1   2     2.612452717352   120.70579353   177.40596334
 C     11  10   1     2.621862070623   120.38690807   359.58197372
 C     12  11  10     2.618275369461   119.56094945   359.03717693
 C     13  12  11     2.615406040628   120.08453054     0.47053266
 H      2   1   3     2.042627997717   113.82468360   179.78883327
 H      3   2   1     2.042640516777   116.96405896   186.22642734
 H      5   4   3     2.032442064926   119.38742770   358.41680655
 H      6   5   4     2.037613588677   119.66141320   180.16838931
 H      7   6   5     2.037234874431   120.22730470   179.96737332
 H      8   7   6     2.037693522953   120.06802734   180.99456840
 H      9   8   7     2.038910854556   119.82237802   180.56752600
 H     10   1   2     2.032385902306   119.38798389   358.37038759
 H     11  10   1     2.037603215107   119.65681158   180.16932854
 H     12  11  10     2.037230779090   120.23041933   179.98621606
 H     13  12  11     2.037677362725   120.06875556   180.97547620
 H     14  13  12     2.038915075529   119.81828384   180.59213113

Calling /proj/scgrp/users/x_rompe/ExtOptORCA-OpenQP/oqp_orca_wrapper stilbene_scan_EXT.extinp.tmp -s 1 -b 6-31g*  > stilbene_scan.lastext ...  done

External program completed successfully in 142.370 sec
------------------------------------------------------------------------------
                         ORCA GEOMETRY RELAXATION STEP
------------------------------------------------------------------------------

Reading the OPT-File                    .... done
Getting information on internals        .... done
Copying old internal coords+grads       .... done
Making the new internal coordinates     .... (2022 redundants) done
Validating the new internal coordinates .... (2022 redundants) done
Calculating the B-matrix                .... done
Calculating the G,G- and P matrices     .... done
Transforming gradient to internals      .... done
Projecting the internal gradient        .... done
Number of atoms                         ....  26
Number of internal coordinates          .... 129
Current Energy                          ....  -540.360358720 Eh
Current gradient norm                   ....     0.007757382 Eh/bohr
Maximum allowed component of the step   ....  0.300
Current trust radius                    ....  0.300
Updating the Hessian (BFGS)             .... done
Forming the augmented Hessian           .... done
Diagonalizing the augmented Hessian     .... done
Last element of RFO vector              ....  0.985100575
Lowest eigenvalues of augmented Hessian:
 -0.001079443  0.015637746  0.018966818  0.023032336  0.025548400
Length of the computed step             ....  0.174580379
The final length of the internal step   ....  0.174580379
Converting the step to Cartesian space:
 Initial RMS(Int)=    0.0153709453
Transforming coordinates:
 Iter   0:  RMS(Cart)=    0.0917736542 RMS(Int)=    0.5533724329
 Iter   5:  RMS(Cart)=    0.0000000369 RMS(Int)=    0.0000000156
Imposing constraints:
 Iter   0:  RMS(Cart)=    0.0000155349 RMS(Int)=    0.0000240248
 Iter   5:  RMS(Cart)=    0.0000004454 RMS(Int)=    0.0000006887
CONVERGED
done
Storing new coordinates                 .... done
The predicted energy change is          ....    -0.000556172
Previously predicted energy change      ....    -0.001779192
Actually observed energy change         ....    -0.000597050
Ratio of predicted to observed change   ....     0.335573663
New trust radius                        ....     0.200000000

                                .--------------------.
          ----------------------|Geometry convergence|-------------------------
          Item                value                   Tolerance       Converged
          ---------------------------------------------------------------------
          Energy change      -0.0005970500            0.0000050000      NO
          RMS gradient        0.0009911509            0.0001000000      NO
          MAX gradient        0.0047111720            0.0003000000      NO
          RMS step            0.0153709453            0.0020000000      NO
          MAX step            0.0741403189            0.0040000000      NO
          ........................................................
          Max(Bonds)      0.0017      Max(Angles)    0.30
          Max(Dihed)        4.25      Max(Improp)    0.00
          ---------------------------------------------------------------------

The optimization has not yet converged - more geometry cycles are needed


    ---------------------------------------------------------------------------
                         Redundant Internal Coordinates
                            (Angstroem and degrees)

        Definition                    Value    dE/dq     Step     New-Value
    ----------------------------------------------------------------------------
     1. B(C   1,C   0)                1.4706  0.001567  0.0005    1.4711   
     2. B(C   2,C   1)                1.3381  0.004711 -0.0017    1.3365   
     3. B(C   3,C   2)                1.4706  0.001475  0.0005    1.4711   
     4. B(C   4,C   3)                1.3975  0.001035 -0.0001    1.3974   
     5. B(C   5,C   4)                1.3824 -0.000588  0.0005    1.3830   
     6. B(C   6,C   5)                1.3874 -0.000172  0.0005    1.3879   
     7. B(C   7,C   6)                1.3855 -0.000894  0.0007    1.3862   
     8. B(C   8,C   3)                1.3960 -0.000190  0.0004    1.3964   
     9. B(C   8,C   7)                1.3840  0.000116  0.0003    1.3842   
    10. B(C   9,C   0)                1.3975  0.001069 -0.0001    1.3974   
    11. B(C  10,C   9)                1.3825 -0.000507  0.0005    1.3829   
    12. B(C  11,C  10)                1.3874 -0.000188  0.0005    1.3879   
    13. B(C  12,C  11)                1.3855 -0.000915  0.0007    1.3862   
    14. B(C  13,C   0)                1.3960 -0.000168  0.0004    1.3965   
    15. B(C  13,C  12)                1.3840  0.000144  0.0003    1.3843   
    16. B(H  14,C   1)                1.0809 -0.000274 -0.0003    1.0806   
    17. B(H  15,C   2)                1.0809 -0.000277 -0.0003    1.0806   
    18. B(H  16,C   4)                1.0755 -0.001148  0.0003    1.0758   
    19. B(H  17,C   5)                1.0783  0.000024 -0.0004    1.0778   
    20. B(H  18,C   6)                1.0781  0.000030 -0.0004    1.0776   
    21. B(H  19,C   7)                1.0783  0.000030 -0.0005    1.0778   
    22. B(H  20,C   8)                1.0789 -0.000039 -0.0004    1.0785   
    23. B(H  21,C   9)                1.0755 -0.001172  0.0003    1.0758   
    24. B(H  22,C  10)                1.0783  0.000019 -0.0004    1.0778   
    25. B(H  23,C  11)                1.0781  0.000037 -0.0004    1.0776   
    26. B(H  24,C  12)                1.0783  0.000033 -0.0005    1.0778   
    27. B(H  25,C  13)                1.0789 -0.000043 -0.0004    1.0785   
    28. A(C   1,C   0,C   9)          122.41  0.001852   -0.01    122.40   
    29. A(C   1,C   0,C  13)          119.21 -0.001395    0.07    119.29   
    30. A(C   9,C   0,C  13)          118.20 -0.000525   -0.02    118.18   
    31. A(C   2,C   1,H  14)          116.96 -0.000093   -0.30    116.66   
    32. A(C   0,C   1,C   2)          129.22  0.003303    0.10    129.32   
    33. A(C   0,C   1,H  14)          113.82 -0.003210    0.19    114.01   
    34. A(C   3,C   2,H  15)          113.83 -0.003150    0.18    114.01   
    35. A(C   1,C   2,C   3)          129.21  0.003188    0.11    129.32   
    36. A(C   1,C   2,H  15)          116.96 -0.000039   -0.30    116.66   
    37. A(C   2,C   3,C   4)          122.40  0.001664    0.01    122.40   
    38. A(C   2,C   3,C   8)          119.22 -0.001281    0.06    119.28   
    39. A(C   4,C   3,C   8)          118.21 -0.000449   -0.02    118.19   
    40. A(C   3,C   4,C   5)          120.70  0.000002    0.03    120.73   
    41. A(C   3,C   4,H  16)          119.39  0.000350   -0.04    119.35   
    42. A(C   5,C   4,H  16)          119.91 -0.000355    0.01    119.92   
    43. A(C   4,C   5,C   6)          120.38  0.000079    0.01    120.39   
    44. A(C   4,C   5,H  17)          119.66  0.000086   -0.02    119.64   
    45. A(C   6,C   5,H  17)          119.95 -0.000166    0.01    119.97   
    46. A(C   5,C   6,C   7)          119.57  0.000135   -0.02    119.54   
    47. A(C   5,C   6,H  18)          120.23 -0.000004    0.01    120.23   
    48. A(C   7,C   6,H  18)          120.20 -0.000136    0.02    120.22   
    49. A(C   6,C   7,C   8)          120.08  0.000112   -0.01    120.07   
    50. A(C   6,C   7,H  19)          120.07 -0.000210    0.02    120.09   
    51. A(C   8,C   7,H  19)          119.85  0.000097   -0.01    119.83   
    52. A(C   7,C   8,H  20)          119.82  0.000043   -0.03    119.79   
    53. A(C   3,C   8,C   7)          121.00  0.000093    0.04    121.04   
    54. A(C   3,C   8,H  20)          119.17 -0.000138   -0.01    119.16   
    55. A(C   0,C   9,H  21)          119.39  0.000351   -0.04    119.35   
    56. A(C  10,C   9,H  21)          119.90 -0.000375    0.02    119.91   
    57. A(C   0,C   9,C  10)          120.71  0.000020    0.03    120.73   
    58. A(C   9,C  10,C  11)          120.39  0.000103    0.01    120.39   
    59. A(C   9,C  10,H  22)          119.66  0.000087   -0.02    119.64   
    60. A(C  11,C  10,H  22)          119.95 -0.000190    0.02    119.97   
    61. A(C  10,C  11,H  23)          120.23  0.000017    0.00    120.23   
    62. A(C  12,C  11,H  23)          120.20 -0.000122    0.02    120.22   
    63. A(C  10,C  11,C  12)          119.56  0.000101   -0.02    119.54   
    64. A(C  11,C  12,C  13)          120.08  0.000131   -0.01    120.07   
    65. A(C  11,C  12,H  24)          120.07 -0.000225    0.03    120.09   
    66. A(C  13,C  12,H  24)          119.84  0.000093   -0.01    119.83   
    67. A(C   0,C  13,C  12)          121.01  0.000142    0.04    121.05   
    68. A(C   0,C  13,H  25)          119.17 -0.000160   -0.01    119.16   
    69. A(C  12,C  13,H  25)          119.82  0.000015   -0.03    119.79   
    70. D(C   2,C   1,C   0,C  13)   -140.36  0.001345   -3.21   -143.57   
    71. D(C   2,C   1,C   0,C   9)     44.52  0.002335   -4.25     40.27   
    72. D(H  14,C   1,C   0,C  13)     39.43  0.001036   -2.23     37.20   
    73. D(H  14,C   1,C   0,C   9)   -135.70  0.002026   -3.27   -138.96   
    74. D(H  15,C   2,C   1,C   0)   -173.77  0.001905   -0.96   -174.74   
    75. D(C   3,C   2,C   1,C   0)      6.00  0.001621    0.00      6.00 C 
    76. D(C   3,C   2,C   1,H  14)   -173.78  0.001943   -1.01   -174.79   
    77. D(H  15,C   2,C   1,H  14)      6.44  0.002227   -1.98      4.47   
    78. D(C   4,C   3,C   2,H  15)   -135.59  0.002005   -3.21   -138.80   
    79. D(C   4,C   3,C   2,C   1)     44.63  0.002276   -4.15     40.49   
    80. D(C   8,C   3,C   2,H  15)     39.59  0.001031   -2.18     37.41   
    81. D(C   8,C   3,C   2,C   1)   -140.19  0.001303   -3.12   -143.31   
    82. D(C   5,C   4,C   3,C   2)    177.46 -0.000396    0.28    177.74   
    83. D(C   5,C   4,C   3,C   8)      2.24  0.000609   -0.74      1.50   
    84. D(H  16,C   4,C   3,C   2)     -1.58 -0.000147    0.03     -1.56   
    85. D(H  16,C   4,C   3,C   8)   -176.81  0.000857   -1.00   -177.80   
    86. D(C   6,C   5,C   4,C   3)     -0.40 -0.000142    0.14     -0.26   
    87. D(C   6,C   5,C   4,H  16)    178.65 -0.000386    0.39    179.04   
    88. D(H  17,C   5,C   4,C   3)   -179.83 -0.000060    0.11   -179.72   
    89. D(H  17,C   5,C   4,H  16)     -0.79 -0.000303    0.36     -0.43   
    90. D(C   7,C   6,C   5,C   4)     -1.00 -0.000281    0.36     -0.64   
    91. D(C   7,C   6,C   5,H  17)    178.43 -0.000362    0.39    178.82   
    92. D(H  18,C   6,C   5,C   4)    179.97  0.000019    0.03    180.00   
    93. D(H  18,C   6,C   5,H  17)     -0.60 -0.000063    0.06     -0.54   
    94. D(C   8,C   7,C   6,C   5)      0.51  0.000213   -0.24      0.26   
    95. D(C   8,C   7,C   6,H  18)    179.53 -0.000086    0.09    179.62   
    96. D(H  19,C   7,C   6,C   5)   -179.01  0.000298   -0.36   -179.36   
    97. D(H  19,C   7,C   6,H  18)      0.02 -0.000000   -0.02     -0.00   
    98. D(C   7,C   8,C   3,C   2)   -178.13  0.000149   -0.13   -178.26   
    99. D(C   7,C   8,C   3,C   4)     -2.75 -0.000679    0.87     -1.88   
   100. D(H  20,C   8,C   3,C   2)      2.70  0.000369   -0.48      2.22   
   101. D(H  20,C   8,C   3,C   4)    178.08 -0.000459    0.52    178.60   
   102. D(C   3,C   8,C   7,C   6)      1.41  0.000289   -0.38      1.02   
   103. D(C   3,C   8,C   7,H  19)   -179.08  0.000202   -0.27   -179.35   
   104. D(H  20,C   8,C   7,C   6)   -179.43  0.000065   -0.03   -179.46   
   105. D(H  20,C   8,C   7,H  19)      0.08 -0.000021    0.09      0.17   
   106. D(C  10,C   9,C   0,C   1)    177.41 -0.000423    0.30    177.70   
   107. D(C  10,C   9,C   0,C  13)      2.23  0.000599   -0.74      1.50   
   108. D(H  21,C   9,C   0,C   1)     -1.63 -0.000156    0.02     -1.61   
   109. D(H  21,C   9,C   0,C  13)   -176.80  0.000866   -1.01   -177.81   
   110. D(C  11,C  10,C   9,C   0)     -0.42 -0.000142    0.13     -0.29   
   111. D(C  11,C  10,C   9,H  21)    178.61 -0.000403    0.41    179.02   
   112. D(H  22,C  10,C   9,C   0)   -179.83 -0.000052    0.10   -179.73   
   113. D(H  22,C  10,C   9,H  21)     -0.80 -0.000313    0.37     -0.43   
   114. D(C  12,C  11,C  10,C   9)     -0.96 -0.000272    0.36     -0.60   
   115. D(C  12,C  11,C  10,H  22)    178.45 -0.000361    0.40    178.84   
   116. D(H  23,C  11,C  10,C   9)    179.99  0.000020    0.03    180.02   
   117. D(H  23,C  11,C  10,H  22)     -0.60 -0.000068    0.06     -0.54   
   118. D(C  13,C  12,C  11,C  10)      0.47  0.000201   -0.23      0.24   
   119. D(C  13,C  12,C  11,H  23)    179.52 -0.000090    0.10    179.62   
   120. D(H  24,C  12,C  11,C  10)   -179.02  0.000291   -0.35   -179.38   
   121. D(H  24,C  12,C  11,H  23)      0.03  0.000000   -0.02      0.00   
   122. D(C  12,C  13,C   0,C   1)   -178.07  0.000155   -0.14   -178.21   
   123. D(H  25,C  13,C  12,C  11)   -179.41  0.000074   -0.04   -179.45   
   124. D(H  25,C  13,C   0,C   1)      2.75  0.000373   -0.48      2.27   
   125. D(H  25,C  13,C   0,C   9)    178.08 -0.000456    0.52    178.60   
   126. D(C   0,C  13,C  12,C  11)      1.41  0.000295   -0.39      1.02   
   127. D(C  12,C  13,C   0,C   9)     -2.74 -0.000674    0.87     -1.87   
   128. D(C   0,C  13,C  12,H  24)   -179.09  0.000203   -0.27   -179.36   
   129. D(H  25,C  13,C  12,H  24)      0.09 -0.000017    0.08      0.17   
    ----------------------------------------------------------------------------

Geometry step timings:
Preparation and reading OPT file:      0.001 s ( 6.067 %)
Internal coordinates            :      0.000 s ( 0.663 %)
B/P matrices and projection     :      0.004 s (40.034 %)
Hessian update/contruction      :      0.001 s ( 7.607 %)
Making the step                 :      0.002 s (17.865 %)
Converting the step to Cartesian:      0.000 s ( 4.607 %)
Storing new data                :      0.000 s ( 0.730 %)
Checking convergence            :      0.000 s ( 0.427 %)
Final printing                  :      0.002 s (21.989 %)
Total time                      :      0.009 s

Time for energy+gradient        :    142.374 s
Time for complete geometry iter :    142.728 s

         *************************************************************
         *                GEOMETRY OPTIMIZATION CYCLE   3            *
         *************************************************************
---------------------------------
CARTESIAN COORDINATES (ANGSTROEM)
---------------------------------
  C      1.435255   -0.512569    0.890213
  C      0.432071   -0.241787    1.931592
  C     -0.811765    0.230899    1.806838
  C     -1.585689    0.508118    0.586833
  C     -1.559872   -0.337987   -0.524998
  C     -2.337064   -0.068068   -1.636620
  C     -3.161318    1.048222   -1.662766
  C     -3.211733    1.886718   -0.560029
  C     -2.439780    1.612471    0.555776
  C      1.629578    0.337484   -0.201743
  C      2.614790    0.074144   -1.135844
  C      3.432287   -1.039110   -0.999343
  C      3.263741   -1.881618    0.088518
  C      2.282573   -1.614064    1.027647
  H      0.772933   -0.450797    2.935493
  H     -1.346983    0.435333    2.723056
  H     -0.935359   -1.213763   -0.506701
  H     -2.306942   -0.734994   -2.482787
  H     -3.765837    1.256157   -2.530299
  H     -3.856525    2.750387   -0.566885
  H     -2.489074    2.263050    1.414592
  H      1.010640    1.211113   -0.306526
  H      2.752075    0.744036   -1.968952
  H      4.199367   -1.241739   -1.728590
  H      3.900222   -2.743110    0.208603
  H      2.161257   -2.267660    1.876973

----------------------------
CARTESIAN COORDINATES (A.U.)
----------------------------
  NO LB      ZA    FRAG     MASS         X           Y           Z
   0 C     6.0000    0    12.011    2.712238   -0.968616    1.682260
   1 C     6.0000    0    12.011    0.816496   -0.456911    3.650180
   2 C     6.0000    0    12.011   -1.534014    0.436335    3.414430
   3 C     6.0000    0    12.011   -2.996518    0.960204    1.108953
   4 C     6.0000    0    12.011   -2.947731   -0.638702   -0.992103
   5 C     6.0000    0    12.011   -4.416411   -0.128630   -3.092764
   6 C     6.0000    0    12.011   -5.974026    1.980852   -3.142172
   7 C     6.0000    0    12.011   -6.069295    3.565379   -1.058302
   8 C     6.0000    0    12.011   -4.610516    3.047129    1.050265
   9 C     6.0000    0    12.011    3.079456    0.637753   -0.381240
  10 C     6.0000    0    12.011    4.941236    0.140112   -2.146434
  11 C     6.0000    0    12.011    6.486082   -1.963634   -1.888485
  12 C     6.0000    0    12.011    6.167577   -3.555742    0.167275
  13 C     6.0000    0    12.011    4.313438   -3.050139    1.941972
  14 H     1.0000    0     1.008    1.460631   -0.851883    5.547278
  15 H     1.0000    0     1.008   -2.545430    0.822660    5.145829
  16 H     1.0000    0     1.008   -1.767572   -2.293680   -0.957527
  17 H     1.0000    0     1.008   -4.359490   -1.388937   -4.691787
  18 H     1.0000    0     1.008   -7.116400    2.373792   -4.781572
  19 H     1.0000    0     1.008   -7.287775    5.197478   -1.071256
  20 H     1.0000    0     1.008   -4.703668    4.276545    2.673191
  21 H     1.0000    0     1.008    1.909833    2.288672   -0.579250
  22 H     1.0000    0     1.008    5.200668    1.406024   -3.720780
  23 H     1.0000    0     1.008    7.935653   -2.346547   -3.266562
  24 H     1.0000    0     1.008    7.370352   -5.183726    0.394203
  25 H     1.0000    0     1.008    4.084184   -4.285256    3.546965

--------------------------------
INTERNAL COORDINATES (ANGSTROEM)
--------------------------------
 C      0   0   0     0.000000000000     0.00000000     0.00000000
 C      1   0   0     1.471111659222     0.00000000     0.00000000
 C      2   1   0     1.336459602767   129.32249674     0.00000000
 C      3   2   1     1.471129598916   129.32178464     5.99999560
 C      4   3   2     1.397400240780   122.41235634    40.48341999
 C      5   4   3     1.382962711324   120.72899868   177.74746521
 C      6   5   4     1.387869589120   120.38988929   359.74149050
 C      7   6   5     1.386233728591   119.54612579   359.35929984
 C      8   7   6     1.384248507142   120.07316702     0.26197146
 C      1   2   3     1.397398454612   122.41279668    40.26507495
 C     10   1   2     1.382943950337   120.73302043   177.70667228
 C     11  10   1     1.387901366323   120.39277788   359.71400051
 C     12  11  10     1.386242679884   119.54195354   359.39817597
 C     13  12  11     1.384283037363   120.07319059     0.23687281
 H      2   1   3     1.080596672505   114.01253112   180.77583857
 H      3   2   1     1.080604371415   116.66253420   185.26279351
 H      5   4   3     1.075795768242   119.34725289   358.44622203
 H      6   5   4     1.077819480746   119.64110900   180.27734109
 H      7   6   5     1.077633330860   120.23327105   179.99784406
 H      8   7   6     1.077835049768   120.09148362   180.63681261
 H      9   8   7     1.078539567800   119.79269426   180.53957985
 H     10   1   2     1.075774539633   119.34781801   358.39547453
 H     11  10   1     1.077808261377   119.63573339   180.26579610
 H     12  11  10     1.077622520815   120.23487632   180.01606090
 H     13  12  11     1.077820220994   120.09361227   180.62032573
 H     14  13  12     1.078544863176   119.79106826   180.54974417

---------------------------
INTERNAL COORDINATES (A.U.)
---------------------------
 C      0   0   0     0.000000000000     0.00000000     0.00000000
 C      1   0   0     2.779998148348     0.00000000     0.00000000
 C      2   1   0     2.525542638279   129.32249674     0.00000000
 C      3   2   1     2.780032049456   129.32178464     5.99999560
 C      4   3   2     2.640703754550   122.41235634    40.48341999
 C      5   4   3     2.613420777827   120.72899868   177.74746521
 C      6   5   4     2.622693433035   120.38988929   359.74149050
 C      7   6   5     2.619602104642   119.54612579   359.35929984
 C      8   7   6     2.615850579787   120.07316702     0.26197146
 C      1   2   3     2.640700379181   122.41279668    40.26507495
 C     10   1   2     2.613385324699   120.73302043   177.70667228
 C     11  10   1     2.622753483247   120.39277788   359.71400051
 C     12  11  10     2.619619020134   119.54195354   359.39817597
 C     13  12  11     2.615915832449   120.07319059     0.23687281
 H      2   1   3     2.042031772262   114.01253112   180.77583857
 H      3   2   1     2.042046321093   116.66253420   185.26279351
 H      5   4   3     2.032959378009   119.34725289   358.44622203
[...]
    92. D(H  18,C   6,C   5,C   4)    179.95 -0.000001    0.01    179.96   
    93. D(H  18,C   6,C   5,H  17)      0.06 -0.000001    0.01      0.07   
    94. D(C   8,C   7,C   6,C   5)     -0.08 -0.000001    0.00     -0.08   
    95. D(C   8,C   7,C   6,H  18)   -179.96  0.000002   -0.01   -179.97   
    96. D(H  19,C   7,C   6,C   5)    179.91 -0.000001    0.00    179.92   
    97. D(H  19,C   7,C   6,H  18)      0.03  0.000001   -0.01      0.02   
    98. D(C   7,C   8,C   3,C   2)   -179.83  0.000004   -0.01   -179.84   
    99. D(C   7,C   8,C   3,C   4)      0.22  0.000003   -0.01      0.21   
   100. D(H  20,C   8,C   3,C   2)      0.07  0.000004    0.00      0.08   
   101. D(H  20,C   8,C   3,C   4)   -179.88  0.000003    0.00   -179.88   
   102. D(C   3,C   8,C   7,C   6)     -0.07 -0.000001    0.00     -0.06   
   103. D(C   3,C   8,C   7,H  19)    179.94 -0.000001   -0.00    179.94   
   104. D(H  20,C   8,C   7,C   6)   -179.97 -0.000001   -0.01   -179.98   
   105. D(H  20,C   8,C   7,H  19)      0.04 -0.000000   -0.01      0.03   
   106. D(C  10,C   9,C   0,C   1)    179.87 -0.000004    0.01    179.88   
   107. D(C  10,C   9,C   0,C  13)     -0.18 -0.000003    0.01     -0.17   
   108. D(H  21,C   9,C   0,C   1)     -0.31 -0.000006    0.02     -0.30   
   109. D(H  21,C   9,C   0,C  13)    179.63 -0.000005    0.02    179.65   
   110. D(C  11,C  10,C   9,C   0)      0.09  0.000001   -0.01      0.08   
   111. D(C  11,C  10,C   9,H  21)   -179.73  0.000003   -0.02   -179.74   
   112. D(H  22,C  10,C   9,C   0)    179.99  0.000000   -0.00    179.98   
   113. D(H  22,C  10,C   9,H  21)      0.17  0.000002   -0.01      0.16   
   114. D(C  12,C  11,C  10,C   9)      0.03  0.000001    0.00      0.03   
   115. D(C  12,C  11,C  10,H  22)   -179.87  0.000002   -0.00   -179.87   
   116. D(H  23,C  11,C  10,C   9)    179.95 -0.000001    0.01    179.96   
   117. D(H  23,C  11,C  10,H  22)      0.05 -0.000001    0.01      0.06   
   118. D(C  13,C  12,C  11,C  10)     -0.05 -0.000001    0.00     -0.04   
   119. D(C  13,C  12,C  11,H  23)   -179.97  0.000002   -0.01   -179.98   
   120. D(H  24,C  12,C  11,C  10)    179.94 -0.000001    0.00    179.95   
   121. D(H  24,C  12,C  11,H  23)      0.02  0.000001   -0.01      0.01   
   122. D(C  12,C  13,C   0,C   1)   -179.89  0.000004   -0.01   -179.89   
   123. D(H  25,C  13,C  12,C  11)   -179.98 -0.000001   -0.01   -179.98   
   124. D(H  25,C  13,C   0,C   1)      0.04  0.000004    0.00      0.04   
   125. D(H  25,C  13,C   0,C   9)   -179.91  0.000003    0.00   -179.91   
   126. D(C   0,C  13,C  12,C  11)     -0.05 -0.000001    0.00     -0.05   
   127. D(C  12,C  13,C   0,C   9)      0.16  0.000003   -0.01      0.16   
   128. D(C   0,C  13,C  12,H  24)    179.96 -0.000001   -0.00    179.96   
   129. D(H  25,C  13,C  12,H  24)      0.03 -0.000000   -0.01      0.03   
    ----------------------------------------------------------------------------

Geometry step timings:
Preparation and reading OPT file:      0.001 s ( 8.593 %)
Internal coordinates            :      0.000 s ( 0.640 %)
B/P matrices and projection     :      0.004 s (37.495 %)
Hessian update/contruction      :      0.001 s ( 6.557 %)
Making the step                 :      0.002 s (16.951 %)
Converting the step to Cartesian:      0.000 s ( 3.316 %)
Storing new data                :      0.000 s ( 0.736 %)
Checking convergence            :      0.000 s ( 0.416 %)
Final printing                  :      0.002 s (25.192 %)
Total time                      :      0.009 s
                 *******************************************************
                 *** FINAL ENERGY EVALUATION AT THE STATIONARY POINT ***
                 ***               (AFTER    4 CYCLES)               ***
                 *******************************************************
---------------------------------
CARTESIAN COORDINATES (ANGSTROEM)
---------------------------------
  C      1.807985   -0.681108    0.148948
  C      0.360739   -0.564729    0.003682
  C     -0.353887    0.565874   -0.070090
  C     -1.801139    0.682107   -0.215356
  C     -2.656612   -0.416563   -0.352615
  C     -4.020059   -0.241950   -0.483045
  C     -4.571217    1.033009   -0.482361
  C     -3.739613    2.132490   -0.350686
  C     -2.373193    1.956616   -0.219750
  C      2.673194    0.417726    0.190455
  C      4.035455    0.242865    0.332244
  C      4.576089   -1.032459    0.435145
  C      3.735308   -2.132057    0.393739
  C      2.370003   -1.955924    0.251950
  H     -0.157377   -1.511159   -0.040649
  H      0.162929    1.512373   -0.013774
  H     -2.253526   -1.415449   -0.361136
  H     -4.659035   -1.104146   -0.587893
  H     -5.636090    1.164269   -0.585092
  H     -4.153402    3.128065   -0.349821
  H     -1.732150    2.818476   -0.117263
  H      2.279364    1.416976    0.108536
  H      4.682132    1.105203    0.361357
  H      5.640222   -1.163860    0.545090
  H      4.141042   -3.127904    0.471597
  H      1.721685   -2.817877    0.220838

----------------------------
CARTESIAN COORDINATES (A.U.)
----------------------------
  NO LB      ZA    FRAG     MASS         X           Y           Z
   0 C     6.0000    0    12.011    3.416596   -1.287107    0.281470
   1 C     6.0000    0    12.011    0.681698   -1.067183    0.006958
   2 C     6.0000    0    12.011   -0.668749    1.069346   -0.132450
   3 C     6.0000    0    12.011   -3.403660    1.288996   -0.406964
   4 C     6.0000    0    12.011   -5.020270   -0.787190   -0.666346
   5 C     6.0000    0    12.011   -7.596811   -0.457219   -0.912824
   6 C     6.0000    0    12.011   -8.638348    1.952104   -0.911529
   7 C     6.0000    0    12.011   -7.066845    4.029822   -0.662700
   8 C     6.0000    0    12.011   -4.484684    3.697469   -0.415267
   9 C     6.0000    0    12.011    5.051605    0.789389    0.359907
  10 C     6.0000    0    12.011    7.625904    0.458948    0.627850
  11 C     6.0000    0    12.011    8.647555   -1.951065    0.822304
  12 C     6.0000    0    12.011    7.058710   -4.029004    0.744059
  13 C     6.0000    0    12.011    4.478657   -3.696161    0.476117
  14 H     1.0000    0     1.008   -0.297399   -2.855677   -0.076816
  15 H     1.0000    0     1.008    0.307892    2.857971   -0.026029
  16 H     1.0000    0     1.008   -4.258548   -2.674810   -0.682449
  17 H     1.0000    0     1.008   -8.804300   -2.086534   -1.110956
  18 H     1.0000    0     1.008  -10.650666    2.200149   -1.105663
  19 H     1.0000    0     1.008   -7.848792    5.911187   -0.661065
  20 H     1.0000    0     1.008   -3.273290    5.326148   -0.221595
  21 H     1.0000    0     1.008    4.307375    2.677696    0.205104
  22 H     1.0000    0     1.008    8.847946    2.088531    0.682866
  23 H     1.0000    0     1.008   10.658476   -2.199376    1.030071
  24 H     1.0000    0     1.008    7.825434   -5.910882    0.891189
  25 H     1.0000    0     1.008    3.253514   -5.325015    0.417323

--------------------------------
INTERNAL COORDINATES (ANGSTROEM)
--------------------------------
 C      0   0   0     0.000000000000     0.00000000     0.00000000
 C      1   0   0     1.459166032276     0.00000000     0.00000000
 C      2   1   0     1.339550077808   127.00772928     0.00000000
 C      3   2   1     1.459161608202   127.00202280   179.99999525
 C      4   3   2     1.399196487106   123.61644645   357.37592500
 C      5   4   3     1.380756865747   120.91093061   179.82901124
 C      6   5   4     1.388990760386   120.52159673     0.08739172
 C      7   6   5     1.384832711994   119.37524936     0.06415415
 C      8   7   6     1.383900813540   120.06752112   359.92378120
 C      1   2   3     1.399195221714   123.61626596   357.89006065
 C     10   1   2     1.380736935844   120.90903034   179.87882221
 C     11  10   1     1.389001356886   120.52427517     0.08371873
 C     12  11  10     1.384825724053   119.37478001     0.02763548
 C     13  12  11     1.383901899273   120.06514495   359.95579459
 H      2   1   3     1.079879479077   114.20839472   180.33538760
 H      3   2   1     1.079875898109   118.78872403   359.61922854
 H      5   4   3     1.077182714576   120.00839254   359.60746397
 H      6   5   4     1.078269624268   119.55306452   179.97464200
 H      7   6   5     1.077839007864   120.24951179   179.96108801
 H      8   7   6     1.078142656248   120.18178657   179.91849645
 H      9   8   7     1.079000179864   119.60907484   180.02234615
 H     10   1   2     1.077177699477   120.01198688   359.70407707
 H     11  10   1     1.078270035615   119.55115542   179.98400632
 H     12  11  10     1.077837696366   120.24954232   179.96248611
 H     13  12  11     1.078143132014   120.18426584   179.94757747
 H     14  13  12     1.079002281817   119.60771155   180.01701459

---------------------------
INTERNAL COORDINATES (A.U.)
---------------------------
 C      0   0   0     0.000000000000     0.00000000     0.00000000
 C      1   0   0     2.757424184922     0.00000000     0.00000000
 C      2   1   0     2.531382789731   127.00772928     0.00000000
 C      3   2   1     2.757415824633   127.00202280   179.99999525
 C      4   3   2     2.644098168174   123.61644645   357.37592500
 C      5   4   3     2.609252333794   120.91093061   179.82901124
 C      6   5   4     2.624812139677   120.52159673     0.08739172
 C      7   6   5     2.616954566965   119.37524936     0.06415415
 C      8   7   6     2.615193534101   120.06752112   359.92378120
 C      1   2   3     2.644095776930   123.61626596   357.89006065
 C     10   1   2     2.609214671734   120.90903034   179.87882221
 C     11  10   1     2.624832164160   120.52427517     0.08371873
 C     12  11  10     2.616941361670   119.37478001     0.02763548
 C     13  12  11     2.615195585840   120.06514495   359.95579459
 H      2   1   3     2.040676473097   114.20839472   180.33538760
 H      3   2   1     2.040669706049   118.78872403   359.61922854
 H      5   4   3     2.035580326742   120.00839254   359.60746397
 H      6   5   4     2.037634288392   119.55306452   179.97464200
 H      7   6   5     2.036820541320   120.24951179   179.96108801
 H      8   7   6     2.037394353608   120.18178657   179.91849645
 H      9   8   7     2.039014838394   119.60907484   180.02234615
 H     10   1   2     2.035570849578   120.01198688   359.70407707
 H     11  10   1     2.037635065727   119.55115542   179.98400632
 H     12  11  10     2.036818062949   120.24954232   179.96248611
 H     13  12  11     2.037395252674   120.18426584   179.94757747
 H     14  13  12     2.039018810511   119.60771155   180.01701459

Calling /proj/scgrp/users/x_rompe/ExtOptORCA-OpenQP/oqp_orca_wrapper stilbene_scan_EXT.extinp.tmp -s 1 -b 6-31g*  ... 

MPI startup(): PMI server not found. Please set I_MPI_PMI_LIBRARY variable if it is not a singleton case.
input.charge=0
input.basis=6-31g*
input.functional=bhhlyp
input.method=tdhf
input.runtype=grad
input.system=stilbene_scan.xyz
input.system2=
input.d4=False
guess.type=json
guess.file=EXT_ORCA_FOR_OQP.json
guess.file2=
guess.save_mol=True
guess.continue_geom=False
scf.type=rohf
scf.maxit=100
scf.forced_attempt=1
scf.maxdiis=7
scf.diis_reset_mod=10
scf.diis_reset_conv=0.005
scf.diis_method_threshold=2.0
scf.diis_type=cdiis
scf.vdiis_cdiis_switch=0.3
scf.vdiis_vshift_switch=0.003
scf.vshift_cdiis_switch=0.3
scf.vshift=0.0
scf.mom=False
scf.mom_switch=0.003
scf.pfon=False
scf.pfon_start_temp=2000.0
scf.pfon_cooling_rate=50.0
scf.pfon_nsmear=5.0
scf.multiplicity=3
scf.conv=1.0e-6
scf.incremental=True
scf.init_scf=no
scf.init_it=0
scf.save_molden=True
dftgrid.hfscale=-1.0
dftgrid.cam_flag=False
dftgrid.cam_alpha=-1.0
dftgrid.cam_beta=-1.0
dftgrid.cam_mu=-1.0
dftgrid.rad_type=mhl
dftgrid.rad_npts=50
dftgrid.ang_npts=194
dftgrid.partfun=ssf
dftgrid.pruned=SG1
dftgrid.grid_ao_pruned=True
dftgrid.grid_ao_threshold=1.0e-15
dftgrid.grid_ao_sparsity_ratio=0.9
tdhf.type=mrsf
tdhf.maxit=50
tdhf.maxit_zv=50
tdhf.multiplicity=1
tdhf.conv=1.0e-6
tdhf.nstate=3
tdhf.zvconv=1.0e-6
tdhf.nvdav=50
tdhf.tlf=2
tdhf.hfscale=-1.0
tdhf.cam_alpha=-1.0
tdhf.cam_beta=-1.0
tdhf.cam_mu=-1.0
tdhf.spc_coco=-1.0
tdhf.spc_ovov=-1.0
tdhf.spc_coov=-1.0
tdhf.conf_threshold=5.0e-2
properties.scf_prop=el_mom,mulliken
properties.td_prop=False
properties.grad=1
properties.nac=
properties.soc=
properties.export=True
properties.title=
properties.back_door=False
optimize.lib=scipy
optimize.optimizer=bfgs
optimize.step_size=0.1
optimize.step_tol=1e-2
optimize.maxit=30
optimize.mep_maxit=10
optimize.rmsd_grad=1e-4
optimize.rmsd_step=1e-3
optimize.max_grad=3e-4
optimize.max_step=2e-3
optimize.istate=1
optimize.jstate=2
optimize.kstate=3
optimize.imult=1
optimize.jmult=3
optimize.energy_shift=1e-6
optimize.energy_gap=1e-5
optimize.meci_search=penalty
optimize.pen_sigma=1.0
optimize.pen_alpha=0.0
optimize.pen_incre=1.0
optimize.gap_weight=1.0
optimize.init_scf=False
dlfind.printl=2
dlfind.icoord=3
dlfind.iopt=3
dlfind.ims=0
hess.type=numerical
hess.state=0
hess.dx=0.01
hess.nproc=1
hess.read=False
hess.restart=False
hess.temperature=298.15
hess.clean=False
nac.type=numerical
nac.dt=1
nac.dx=0.0001
nac.bp=False
nac.nproc=1
nac.restart=False
nac.clean=False
nac.states=1 2
nac.align=reorder
basis_set.library=
tests.exception=False
functional=bhhlyp

External program completed successfully in 71.718 sec

-------------------------------------------------   --------------------
FINAL SINGLE POINT ENERGY (From external program)      -540.369577560000
-------------------------------------------------   --------------------


------------------
CARTESIAN GRADIENT
------------------

   1   C   :   -0.000031559    0.000103003    0.000012238
   2   C   :    0.000368255   -0.000162166    0.000035469
   3   C   :   -0.000365460    0.000161547   -0.000040048
   4   C   :    0.000028479   -0.000101014    0.000016740
   5   C   :   -0.000163197    0.000008795   -0.000027667
   6   C   :    0.000260115   -0.000087164    0.000021970
   7   C   :   -0.000015667    0.000112659    0.000004994
   8   C   :    0.000227832   -0.000111233    0.000018596
   9   C   :   -0.000239376    0.000150201   -0.000007138
  10   C   :    0.000167188   -0.000009269    0.000009293
  11   C   :   -0.000259313    0.000088248   -0.000024501
  12   C   :    0.000010747   -0.000112250    0.000013177
  13   C   :   -0.000229998    0.000113460   -0.000022236
  14   C   :    0.000233825   -0.000155905    0.000042126
  15   H   :   -0.000113475    0.000075061   -0.000020007
  16   H   :    0.000110347   -0.000073501    0.000002274
  17   H   :    0.000051958    0.000033481   -0.000004056
  18   H   :   -0.000071379    0.000046792   -0.000006762
  19   H   :   -0.000002074   -0.000025362   -0.000007520
  20   H   :   -0.000055282   -0.000007662   -0.000007796
  21   H   :    0.000065292   -0.000050817   -0.000000304
  22   H   :   -0.000054974   -0.000035097   -0.000011517
  23   H   :    0.000069137   -0.000046925    0.000013151
  24   H   :    0.000001391    0.000023457    0.000000109
  25   H   :    0.000055343    0.000007890    0.000008356
  26   H   :   -0.000066136    0.000051473   -0.000011414

Difference to translation invariance:
           :   -0.0000179805   -0.0000022981    0.0000075286

Difference to rotation invariance:
           :   -0.0000474451   -0.0003488704   -0.0002424165

Norm of the Cartesian gradient     ...    0.0009760595
RMS gradient                       ...    0.0001105170
MAX gradient                       ...    0.0003682545
                                *** OPTIMIZATION RUN DONE ***


Storing optimized geometry in stilbene_scan.010.xyz ... done
Storing optimized geometry and energy in stilbene_scan.xyzall ... done
Storing actual gbw-file in stilbene_scan.010.gbw ... done
                   **** RELAXED SURFACE SCAN DONE ***

                    SUMMARY OF THE CALCULATED SURFACE

----------------------------
RELAXED SURFACE SCAN RESULTS
----------------------------

Column   1: NONAME

The Calculated Surface using the 'Actual Energy'
   6.00000000 -540.36159858
  25.33333333 -540.35950146
  44.66666667 -540.35242106
  64.00000000 -540.33990138
  83.33333333 -540.32184626
 102.66666667 -540.29927258
 122.00000000 -540.27449203
 141.33333333 -540.35731439
 160.66666667 -540.36649893
 180.00000000 -540.36957756

The Calculated Surface using the SCF energy
   6.00000000 -540.36159858
  25.33333333 -540.35950146
  44.66666667 -540.35242106
  64.00000000 -540.33990138
  83.33333333 -540.32184626
 102.66666667 -540.29927258
 122.00000000 -540.27449203
 141.33333333 -540.35731439
 160.66666667 -540.36649893
 180.00000000 -540.36957756


--------------------------------
SUGGESTED CITATIONS FOR THIS RUN
--------------------------------

Below you find a list of papers that are relevant to this ORCA run
We neither can nor want to force you to cite these papers, but we appreciate if you do
You receive ORCA, which is the product of decades of hard work by many enthusiastic individuals, for free
The only thing we kindly ask in return is that you cite our papers,
We deeply appreciate it, if you show your appreciation for ORCA by not just citing the generic ORCA reference.

Please note that relegating all ORCA citations to the supporting information does *not* help us.
SI sections are not indexed - citations you put there will not count into any citation statistics
But we need these citations in order to attract the funding resources that allow us to do what we are doing

Therefore, if you are a happy ORCA user, please consider citing a few of the papers listed below in the main body of your paper

In addition to the list printed below, the program has created the file stilbene_scan.bibtex that contains the list in bibtex format
You can import this file easily into all common literature databanks and citation aid programs


List of essential papers. We consider these as the minimum necessary citations

  1. Neese,F.
     Software update: the ORCA program system, version 5.0
     WIRES Comput. Molec. Sci., 2022 12(1)e1606
     doi.org/10.1002/wcms.1606

List of papers to cite with high priority. The work reported in these papers was absolutely
necessary for this run to complete.
Our perspective: the developers of density functionals and basis sets usually get cited in chemistry papers
Good! But without the algorithms to do something with them, the functionals or basis sets would not do anything.
Hence, in our opinion, the algorithm design and method developments papers are equally worthy of getting cited

  1. Neese,F.
     The SHARK Integral Generation and Digestion System
     J. Comp. Chem., 2022  1-16
     doi.org/10.1002/jcc.26942

List of suggested additional citations. These are papers that are important in the 'surrounding' of 
of this run, or papers that preceded the highly important papers. If you like your results we are grateful for a citation.

  1. Neese,F.
     The ORCA program system
     WIRES Comput. Molec. Sci., 2012 2(1)73-78
     doi.org/10.1002/wcms.81
  2. Neese,F.
     Software update: the ORCA program system, version 4.0
     WIRES Comput. Molec. Sci., 2018 8(1)1-6
     doi.org/10.1002/wcms.1327
  3. Neese,F.; Wennmohs,F.; Becker,U.; Riplinger,C.
     The ORCA quantum chemistry program package
     J. Chem. Phys., 2020 152 Art. No. L224108
     doi.org/10.1063/5.0004608

List of optional additional citations

  1. Neese,F.
     Approximate second-order SCF convergence for spin unrestricted wavefunctions
     Chem. Phys. Lett., 2000 325(1-3)93-98
     doi.org/10.1016/s0009-2614(00)00662-x

Timings for individual modules:

Sum of individual times          ...     9121.331 sec (= 152.022 min)
Geometry relaxation              ...        0.864 sec (=   0.014 min)   0.0 %
External energy and gradient     ...     9120.467 sec (= 152.008 min) 100.0 %
                             ****ORCA TERMINATED NORMALLY****
TOTAL RUN TIME: 0 days 2 hours 32 minutes 32 seconds 661 msec
