
                                 *****************
                                 * O   R   C   A *
                                 *****************

                                            #,                                       
                                            ###                                      
                                            ####                                     
                                            #####                                    
                                            ######                                   
                                           ########,                                 
                                     ,,################,,,,,                         
                               ,,#################################,,                 
                          ,,##########################################,,             
                       ,#########################################, ''#####,          
                    ,#############################################,,   '####,        
                  ,##################################################,,,,####,       
                ,###########''''           ''''###############################       
              ,#####''   ,,,,##########,,,,          '''####'''          '####       
            ,##' ,,,,###########################,,,                        '##       
           ' ,,###''''                  '''############,,,                           
         ,,##''                                '''############,,,,        ,,,,,,###''
      ,#''                                            '''#######################'''  
     '                                                          ''''####''''         
             ,#######,   #######,   ,#######,      ##                                
            ,#'     '#,  ##    ##  ,#'     '#,    #''#        ,####,   ,####,        
            ##       ##  ##   ,#'  ##            #'  '#       #'       #'  '#        
            ##       ##  #######   ##           ,######,      #####,   #    #        
            '#,     ,#'  ##    ##  '#,     ,#' ,#      #,     #,   #   #,  ,#        
             '#######'   ##     ##  '#######'  #'      '#     '####' # '####'        



                #########################################################
                #                        -***-                          #
                #          Department of theory and spectroscopy        #
                #                                                       #
                #                      Frank Neese                      #
                #                                                       #
                #     Directorship, Architecture, Infrastructure        #
                #                    SHARK, DRIVERS                     #
                #        Core code/Algorithms in most modules           #
                #                                                       #
                #        Max Planck Institute fuer Kohlenforschung      #
                #                Kaiser Wilhelm Platz 1                 #
                #                 D-45470 Muelheim/Ruhr                 #
                #                      Germany                          #
                #                                                       #
                #                  All rights reserved                  #
                #                        -***-                          #
                #########################################################


                         Program Version 6.0.1  -  RELEASE   -


 With contributions from (in alphabetic order):
[Max-Planck-Institut fuer Kohlenforschung]                               
  Daniel Aravena         : Magnetic Suceptibility                        
  Michael Atanasov       : Ab Initio Ligand Field Theory (pilot matlab implementation)
  Alexander A. Auer      : GIAO ZORA, VPT2 properties, NMR spectrum      
  Ute Becker             : All parallelization in ORCA, NUMFREQ, NUMCALC 
  Giovanni Bistoni       : ED, misc. LED, open-shell LED, HFLD           
  Martin Brehm           : Molecular dynamics                            
  Dmytro Bykov           : pre 5.0 version of the SCF Hessian            
  Marcos Casanova-Páez   : Triplet and SCS-CIS(D). UHF-(DLPNO)-IP/EA/STEOM-CCSD. UHF-CVS-IP/STEOM-CCSD   
  Vijay G. Chilkuri      : MRCI spin determinant printing, contributions to CSF-ICE 
  Pauline Colinet        : FMM embedding                                 
  Dipayan Datta          : RHF DLPNO-CCSD density                        
  Achintya Kumar Dutta   : EOM-CC, STEOM-CC                              
  Nicolas Foglia         : Exact transition moments, OPA infrastructure, MCD improvements    
  Dmitry Ganyushin       : Spin-Orbit,Spin-Spin,Magnetic field MRCI      
  Miquel Garcia-Rates    : C-PCM and meta-GGA Hessian, CCSD/C-PCM, Gaussian charge scheme 
  Tiago L. C. Gouveia    : GS-ROHF, GS-ROCIS                             
  Yang Guo               : DLPNO-NEVPT2, F12-NEVPT2, CIM, IAO-localization        
  Andreas Hansen         : Spin unrestricted coupled pair/coupled cluster methods 
  Ingolf Harden          : AUTO-CI MPn and infrastructure                
  Benjamin Helmich-Paris : MC-RPA, TRAH-(SCF,CASSCF), AVAS, COSX integrals, SCF dyn. polar. 
  Lee Huntington         : MR-EOM, pCC                                   
  Robert Izsak           : Overlap fitted RIJCOSX, COSX-SCS-MP3, EOM     
  Riya Kayal             : Wick's Theorem for AUTO-CI, AUTO-CI UHF-CCSDT 
  Emily Kempfer          : AUTO-CI, RHF CISDT and CCSDT                  
  Christian Kollmar      : KDIIS, OOCD, Brueckner-CCSD(T), CCSD density, CASPT2, CASPT2-K, improved NEVPT2 
  Axel Koslowski         : Symmetry handling                             
  Simone Kossmann        : meta-GGA functionals, TD-DFT gradient, OOMP2, (MP2 Hessian; deprecated post 5.0) 
  Lucas Lang             : DCDCAS                                        
  Marvin Lechner         : AUTO-CI (C++ implementation), FIC-MRCC        
  Spencer Leger          : CASSCF response                               
  Dagmar Lenk            : GEPOL surface, SMD, ORCA-2-JSON               
  Dimitrios Liakos       : Extrapolation schemes; Compound Job, initial MDCI parallelization 
  Dimitrios Manganas     : Further ROCIS development; embedding schemes. LFT, Crystal Embedding 
  Dimitrios Pantazis     : SARC Basis sets                               
  Anastasios Papadopoulos: AUTO-CI, single reference methods and gradients 
  Taras Petrenko         : pre 6.0 DFT Hessian and TD-DFT gradient, (ASA, deprecated), ECA, 1-Electron XAS/XES, NRVS 
  Peter Pinski           : DLPNO-MP2, DLPNO-MP2 Gradient                 
  Christoph Reimann      : Effective Core Potentials                     
  Marius Retegan         : Local ZFS, SOC                                
  Christoph Riplinger    : Optimizer, TS searches, QM/MM, DLPNO-CCSD(T), (RO)-DLPNO pert. Triples 
  Michael Roemelt        : Original ROCIS implementation                 
  Masaaki Saitow         : Open-shell DLPNO-CCSD energy and density      
  Barbara Sandhoefer     : DKH picture change effects                    
  Kantharuban Sivalingam : CASSCF convergence/infrastructure, NEVPT2 and variants, FIC-MRCI 
  Bernardo de Souza      : ESD, SOC TD-DFT                               
  Georgi L. Stoychev     : AutoAux, RI-MP2 NMR, DLPNO-MP2 response, X2C  
  Van Anh Tran           : RI-MP2 g-tensors                              
  Willem Van den Heuvel  : Paramagnetic NMR                              
  Zikuan Wang            : NOTCH, Electric field optimization            
  Frank Wennmohs         : Technical directorship and infrastructure     
  Hang Xu                : AUTO-CI-Response properties                   
                                                                         
[FACCTs GmbH]                                                            
  Markus Bursch, Miquel Garcia-Rates, Christoph Riplinger, Bernardo de Souza, Georgi L. Stoychev 
                                                                 
  APM, Basis sets (HGBS, AHGBS, def-TZVP (Ac-Lr), def2-XVPD (La-Lu)), CI-OPT, improved COSX, DLPNO-Multilevel,           
  DOCKER, DRACO, updates on ESD, GOAT, IRC, LR-CPCM, MBIS, meta-GGA TD-DFT gradient, ML-optimized integration grids, 
  MM, NACMEs, nearIR, NEB, NEB-TS, NL-DFT gradient (VV10), 2- and 3-layer-ONIOM, interface openCOSMO-RS, QMMM,   
  Crystal-QMMM, SF, symmetry and pop. for TD-DFT, r2SCAN hybrids, SOLVATOR                                   
                                                                         
[Other institutions]                                                     
  V. Asgeirsson          : NEB                                           
  Christoph Bannwarth    : sTDA-DFT, sTD-DFT, PBEh-3c, B97-3c, D3        
  Sebastian Ehlert       : rSCAN, r2SCAN, r2SCAN-3c, D4, dhf basis sets  
  Marvin Friede          : D4 for Fr, Ra, Ac-Lr                          
  Lars Goerigk           : TD-DFT with DH, B97 family of functionals     
  Stefan Grimme          : VdW corrections, initial TS optimization, DFT functionals, gCP, sTDA/sTD-DF 
  Waldemar Hujo          : DFT-NL                                        
  H. Jonsson             : NEB                                           
  Holger Kruse           : gCP                                           
  Marcel Mueller         : wB97X-3c, vDZP basis set                      
  Hagen Neugebauer       : wr2SCAN                                       
  Tobias Risthaus        : range-separated hybrid DFT                    
  Lukas Wittmann         : regularized MP2, r2SCAN double-hybrids, wr2SCAN        
                                                                         
We gratefully acknowledge several colleagues who have allowed us to      
interface, adapt or use parts of their codes:                            
  Ed Valeev, F. Pavosevic, A. Kumar             : LibInt (2-el integral package), F12 methods 
  Garnet Chan, S. Sharma, J. Yang, R. Olivares  : DMRG                   
  Ulf Ekstrom                                   : XCFun DFT Library      
  Mihaly Kallay                                 : mrcc  (arbitrary order and MRCC methods)
  Frank Weinhold                                : gennbo (NPA and NBO analysis)           
  Simon Mueller                                 : openCOSMO-RS                            
  Christopher J. Cramer and Donald G. Truhlar   : smd solvation model                     
  S Lehtola, MJT Oliveira, MAL Marques          : LibXC Library                           
  Liviu Ungur et al                             : ANISO software                          


 Your calculation uses the libint2 library for the computation of 2-el integrals
 For citations please refer to: http://libint.valeyev.net

 Your ORCA version has been built with support for libXC version: 6.2.2
 For citations please refer to: https://libxc.gitlab.io

 This ORCA versions uses:
   CBLAS   interface :  Fast vector & matrix operations
   LAPACKE interface :  Fast linear algebra routines
   SCALAPACK package :  Parallel linear algebra routines
   Shared memory     :  Shared parallel matrices
   BLAS/LAPACK       :  OpenBLAS 0.3.27  USE64BITINT DYNAMIC_ARCH NO_AFFINITY SkylakeX SINGLE_THREADED
        Core in use  :  SkylakeX
   Copyright (c) 2011-2014, The OpenBLAS Project


NOTE: MaxCore=3000 MB was set to SCF,MP2,MDCI,CIPSI,MRCI and CIS
      => If you want to overwrite this, your respective input block should be placed after the MaxCore statement
================================================================================

================================================================================
                                        WARNINGS
                       Please study these warnings very carefully!
================================================================================


WARNING: Geometry Optimization
  ===> : Switching off AutoStart
         For restart on a previous wavefunction, please use MOREAD

Using external energy/gradient program given in input:
  "/home/x_rompe/bin/oqp_orca_wrapper_python"


WARNING: four-center integrals in TRAH must be done with SHARK!
  ===> : Turning Shark on


================================================================================
                                       INPUT FILE
================================================================================
NAME = benzene_CI.inp
|  1> #MRSF with ORCA external optimizer
|  2> ! ExtOpt Opt
|  3> %method
|  4>     ProgExt "/home/x_rompe/bin/oqp_orca_wrapper_python"
|  5>     Ext_Params "--conical -s 1 2 -b 6-31g*"
|  6> end
|  7> %pal
|  8>     nprocs 16
|  9> end
| 10> %maxcore 3000
| 11> %geom
| 12>     MaxIter 200
| 13> end
| 14> *xyz 0 1
| 15> C       -1.394303561      0.343010470      0.332056016
| 16> C       -2.550372254     -0.011679890      1.030220016
| 17> C       -0.238234868      0.697700829      1.030220016
| 18> H       -3.449797360     -0.287630113      0.487047016
| 19> H        0.661190239      0.973651052      0.487047016
| 20> C       -2.550372254     -0.011679890      2.426550016
| 21> C       -0.238234868      0.697700829      2.426550016
| 22> H       -3.449797360     -0.287630113      2.969723016
| 23> H        0.661190239      0.973651052      2.969723016
| 24> C       -1.394303561      0.343010470      3.124714016
| 25> H       -1.394303561      0.343010470      4.211061016
| 26> H       -1.394303561      0.343010470     -0.754290984
| 27> **                         ****END OF INPUT****
================================================================================

                       *****************************
                       * Geometry Optimization Run *
                       *****************************

Geometry optimization settings:
Update method            Update   .... BFGS
Choice of coordinates    CoordSys .... (2022) Redundant Internals
Initial Hessian          InHess   .... Almloef's Model
Max. no of cycles        MaxIter  .... 200

Convergence Tolerances:
Energy Change            TolE     ....  5.0000e-06 Eh
Max. Gradient            TolMAXG  ....  3.0000e-04 Eh/bohr
RMS Gradient             TolRMSG  ....  1.0000e-04 Eh/bohr
Max. Displacement        TolMAXD  ....  4.0000e-03 bohr
RMS Displacement         TolRMSD  ....  2.0000e-03 bohr
Strict Convergence                .... False

------------------------------------------------------------------------------
                        ORCA OPTIMIZATION COORDINATE SETUP
------------------------------------------------------------------------------

The optimization will be done in redundant internal coordinates (2022)
Making redundant internal coordinates   ...  (2022 redundants) done
Evaluating the initial hessian          ...  (Almloef) done
Evaluating the coordinates              ...  done
Calculating the B-matrix                .... done
Calculating the G-matrix                .... done
Diagonalizing the G-matrix              .... done
The first mode is                       ....   24
The number of degrees of freedom        ....   30

    -----------------------------------------------------------------
                    Redundant Internal Coordinates


    -----------------------------------------------------------------
         Definition                    Initial Value    Approx d2E/dq
    -----------------------------------------------------------------
      1. B(C   1,C   0)                  1.3963         0.610439   
      2. B(C   2,C   0)                  1.3963         0.610439   
      3. B(H   3,C   1)                  1.0863         0.364964   
      4. B(H   4,C   2)                  1.0863         0.364964   
      5. B(C   5,C   1)                  1.3963         0.610435   
      6. B(C   6,C   2)                  1.3963         0.610435   
      7. B(H   7,C   5)                  1.0863         0.364964   
      8. B(H   8,C   6)                  1.0863         0.364964   
      9. B(C   9,C   6)                  1.3963         0.610439   
     10. B(C   9,C   5)                  1.3963         0.610439   
     11. B(H  10,C   9)                  1.0863         0.364965   
     12. B(H  11,C   0)                  1.0863         0.364965   
     13. A(C   2,C   0,H  11)          120.0000         0.352782   
     14. A(C   1,C   0,C   2)          120.0000         0.431647   
     15. A(C   1,C   0,H  11)          120.0000         0.352782   
     16. A(H   3,C   1,C   5)          120.0000         0.352782   
     17. A(C   0,C   1,H   3)          120.0001         0.352782   
     18. A(C   0,C   1,C   5)          120.0000         0.431646   
     19. A(H   4,C   2,C   6)          120.0000         0.352782   
     20. A(C   0,C   2,C   6)          120.0000         0.431646   
     21. A(C   0,C   2,H   4)          120.0001         0.352782   
     22. A(H   7,C   5,C   9)          120.0001         0.352782   
     23. A(C   1,C   5,C   9)          120.0000         0.431646   
     24. A(C   1,C   5,H   7)          120.0000         0.352782   
     25. A(H   8,C   6,C   9)          120.0001         0.352782   
     26. A(C   2,C   6,C   9)          120.0000         0.431646   
     27. A(C   2,C   6,H   8)          120.0000         0.352782   
     28. A(C   5,C   9,H  10)          120.0000         0.352782   
     29. A(C   5,C   9,C   6)          120.0000         0.431647   
     30. A(C   6,C   9,H  10)          120.0000         0.352782   
     31. D(C   5,C   1,C   0,C   2)      0.0000         0.025738   
     32. D(C   5,C   1,C   0,H  11)    180.0000         0.025738   
     33. D(H   3,C   1,C   0,H  11)     -0.0000         0.025738   
     34. D(H   3,C   1,C   0,C   2)    180.0000         0.025738   
     35. D(C   6,C   2,C   0,C   1)     -0.0000         0.025738   
     36. D(H   4,C   2,C   0,C   1)    180.0000         0.025738   
     37. D(H   4,C   2,C   0,H  11)     -0.0000         0.025738   
     38. D(C   6,C   2,C   0,H  11)    180.0000         0.025738   
     39. D(C   9,C   5,C   1,H   3)   -180.0000         0.025738   
     40. D(C   9,C   5,C   1,C   0)      0.0000         0.025738   
     41. D(H   7,C   5,C   1,H   3)      0.0000         0.025738   
     42. D(H   7,C   5,C   1,C   0)    180.0000         0.025738   
     43. D(C   9,C   6,C   2,C   0)      0.0000         0.025738   
     44. D(H   8,C   6,C   2,H   4)      0.0000         0.025738   
     45. D(H   8,C   6,C   2,C   0)    180.0000         0.025738   
     46. D(C   9,C   6,C   2,H   4)   -180.0000         0.025738   
     47. D(H  10,C   9,C   6,H   8)      0.0000         0.025738   
     48. D(C   5,C   9,C   6,H   8)   -180.0000         0.025738   
     49. D(C   5,C   9,C   6,C   2)      0.0000         0.025738   
     50. D(H  10,C   9,C   5,H   7)      0.0000         0.025738   
     51. D(H  10,C   9,C   5,C   1)    180.0000         0.025738   
     52. D(H  10,C   9,C   6,C   2)    180.0000         0.025738   
     53. D(C   6,C   9,C   5,H   7)   -180.0000         0.025738   
     54. D(C   6,C   9,C   5,C   1)     -0.0000         0.025738   
    -----------------------------------------------------------------

Number of atoms                         .... 12
Number of degrees of freedom            .... 54


         *************************************************************
         *                GEOMETRY OPTIMIZATION CYCLE   1            *
         *************************************************************
---------------------------------
CARTESIAN COORDINATES (ANGSTROEM)
---------------------------------
  C     -1.394304    0.343010    0.332056
  C     -2.550372   -0.011680    1.030220
  C     -0.238235    0.697701    1.030220
  H     -3.449797   -0.287630    0.487047
  H      0.661190    0.973651    0.487047
  C     -2.550372   -0.011680    2.426550
  C     -0.238235    0.697701    2.426550
  H     -3.449797   -0.287630    2.969723
  H      0.661190    0.973651    2.969723
  C     -1.394304    0.343010    3.124714
  H     -1.394304    0.343010    4.211061
  H     -1.394304    0.343010   -0.754291

----------------------------
CARTESIAN COORDINATES (A.U.)
----------------------------
  NO LB      ZA    FRAG     MASS         X           Y           Z
   0 C     6.0000    0    12.011   -2.634852    0.648196    0.627495
   1 C     6.0000    0    12.011   -4.819505   -0.022072    1.946834
   2 C     6.0000    0    12.011   -0.450199    1.318463    1.946834
   3 H     1.0000    0     1.008   -6.519172   -0.543542    0.920385
   4 H     1.0000    0     1.008    1.249468    1.839934    0.920385
   5 C     6.0000    0    12.011   -4.819505   -0.022072    4.585515
   6 C     6.0000    0    12.011   -0.450199    1.318463    4.585515
   7 H     1.0000    0     1.008   -6.519172   -0.543542    5.611963
   8 H     1.0000    0     1.008    1.249468    1.839934    5.611963
   9 C     6.0000    0    12.011   -2.634852    0.648196    5.904854
  10 H     1.0000    0     1.008   -2.634852    0.648196    7.957752
  11 H     1.0000    0     1.008   -2.634852    0.648196   -1.425403

--------------------------------
INTERNAL COORDINATES (ANGSTROEM)
--------------------------------
 C      0   0   0     0.000000000000     0.00000000     0.00000000
 C      1   0   0     1.396328415992     0.00000000     0.00000000
 C      1   2   0     1.396328415738   120.00001970     0.00000000
 H      2   1   3     1.086347529479   120.00005643   180.00000000
 H      3   1   2     1.086347530307   120.00005645   180.00000000
 C      2   1   3     1.396330000000   119.99999014     0.00000000
 C      3   1   2     1.396330000000   119.99999015     0.00000000
 H      6   2   1     1.086347529479   119.99995343   179.99999915
 H      7   3   1     1.086347530307   119.99995340   179.99999915
 C      7   3   1     1.396328415738   119.99999015     0.00000000
 H     10   7   3     1.086347000000   119.99999015   180.00000085
 H      1   2   3     1.086347000000   119.99999014   180.00000000

---------------------------
INTERNAL COORDINATES (A.U.)
---------------------------
 C      0   0   0     0.000000000000     0.00000000     0.00000000
 C      1   0   0     2.638678299238     0.00000000     0.00000000
 C      1   2   0     2.638678298758   120.00001970     0.00000000
 H      2   1   3     2.052899316978   120.00005643   180.00000000
 H      3   1   2     2.052899318542   120.00005645   180.00000000
 C      2   1   3     2.638681292578   119.99999014     0.00000000
 C      3   1   2     2.638681292578   119.99999015     0.00000000
 H      6   2   1     2.052899316978   119.99995343   179.99999915
 H      7   3   1     2.052899318542   119.99995340   179.99999915
 C      7   3   1     2.638678298758   119.99999015     0.00000000
 H     10   7   3     2.052898316407   119.99999015   180.00000085
 H      1   2   3     2.052898316407   119.99999014   180.00000000

Calling /home/x_rompe/bin/oqp_orca_wrapper_python benzene_CI_EXT.extinp.tmp --conical -s 1 2 -b 6-31g*  ... 

MPI startup(): PMI server not found. Please set I_MPI_PMI_LIBRARY variable if it is not a singleton case.
input.charge=0
input.basis=6-31g*
input.functional=bhhlyp
input.method=tdhf
input.runtype=grad
input.system=benzene_CI.xyz
input.system2=
input.d4=False
guess.type=huckel
guess.file=
guess.file2=
guess.save_mol=True
guess.continue_geom=False
scf.type=rohf
scf.maxit=100
scf.forced_attempt=1
scf.maxdiis=7
scf.diis_reset_mod=10
scf.diis_reset_conv=0.005
scf.diis_method_threshold=2.0
scf.diis_type=cdiis
scf.vdiis_cdiis_switch=0.3
scf.vdiis_vshift_switch=0.003
scf.vshift_cdiis_switch=0.3
scf.vshift=0.0
scf.mom=False
scf.mom_switch=0.003
scf.pfon=False
scf.pfon_start_temp=2000.0
scf.pfon_cooling_rate=50.0
scf.pfon_nsmear=5.0
scf.multiplicity=3
scf.conv=1.0e-6
scf.incremental=True
scf.init_scf=no
scf.init_it=0
scf.save_molden=True
dftgrid.hfscale=-1.0
dftgrid.cam_flag=False
dftgrid.cam_alpha=-1.0
dftgrid.cam_beta=-1.0
dftgrid.cam_mu=-1.0
dftgrid.rad_type=mhl
dftgrid.rad_npts=50
dftgrid.ang_npts=194
dftgrid.partfun=ssf
dftgrid.pruned=SG1
dftgrid.grid_ao_pruned=True
dftgrid.grid_ao_threshold=1.0e-15
dftgrid.grid_ao_sparsity_ratio=0.9
tdhf.type=mrsf
tdhf.maxit=50
tdhf.maxit_zv=50
tdhf.multiplicity=1
tdhf.conv=1.0e-6
tdhf.nstate=3
tdhf.zvconv=1.0e-6
tdhf.nvdav=50
tdhf.tlf=2
tdhf.hfscale=-1.0
tdhf.cam_alpha=-1.0
tdhf.cam_beta=-1.0
tdhf.cam_mu=-1.0
tdhf.spc_coco=-1.0
tdhf.spc_ovov=-1.0
tdhf.spc_coov=-1.0
tdhf.conf_threshold=5.0e-2
properties.scf_prop=el_mom,mulliken
properties.td_prop=False
properties.grad=1
properties.nac=
properties.soc=
properties.export=True
properties.title=
properties.back_door=False
optimize.lib=scipy
optimize.optimizer=bfgs
optimize.step_size=0.1
optimize.step_tol=1e-2
optimize.maxit=30
optimize.mep_maxit=10
optimize.rmsd_grad=1e-4
optimize.rmsd_step=1e-3
optimize.max_grad=3e-4
optimize.max_step=2e-3
optimize.istate=1
optimize.jstate=2
optimize.kstate=3
optimize.imult=1
optimize.jmult=3
optimize.energy_shift=1e-6
optimize.energy_gap=1e-5
optimize.meci_search=penalty
optimize.pen_sigma=1.0
optimize.pen_alpha=0.0
optimize.pen_incre=1.0
optimize.gap_weight=1.0
optimize.init_scf=False
dlfind.printl=2
dlfind.icoord=3
dlfind.iopt=3
dlfind.ims=0
hess.type=numerical
hess.state=0
hess.dx=0.01
hess.nproc=1
hess.read=False
hess.restart=False
hess.temperature=298.15
hess.clean=False
nac.type=numerical
nac.dt=1
nac.dx=0.0001
nac.bp=False
nac.nproc=1
nac.restart=False
nac.clean=False
nac.states=1 2
nac.align=reorder
basis_set.library=
tests.exception=False
functional=bhhlyp
MPI startup(): PMI server not found. Please set I_MPI_PMI_LIBRARY variable if it is not a singleton case.
input.charge=0
input.basis=6-31g*
input.functional=bhhlyp
input.method=tdhf
input.runtype=grad
input.system=benzene_CI.xyz
input.system2=
input.d4=False
guess.type=json
guess.file=EXT_ORCA_FOR_OQP_STATE_1.json
guess.file2=
guess.save_mol=True
guess.continue_geom=False
scf.type=rohf
scf.maxit=100
scf.forced_attempt=1
scf.maxdiis=7
scf.diis_reset_mod=10
scf.diis_reset_conv=0.005
scf.diis_method_threshold=2.0
scf.diis_type=cdiis
scf.vdiis_cdiis_switch=0.3
scf.vdiis_vshift_switch=0.003
scf.vshift_cdiis_switch=0.3
scf.vshift=0.0
scf.mom=False
scf.mom_switch=0.003
scf.pfon=False
scf.pfon_start_temp=2000.0
scf.pfon_cooling_rate=50.0
scf.pfon_nsmear=5.0
scf.multiplicity=3
scf.conv=1.0e-6
scf.incremental=True
scf.init_scf=no
scf.init_it=0
scf.save_molden=True
dftgrid.hfscale=-1.0
dftgrid.cam_flag=False
dftgrid.cam_alpha=-1.0
dftgrid.cam_beta=-1.0
dftgrid.cam_mu=-1.0
dftgrid.rad_type=mhl
dftgrid.rad_npts=50
dftgrid.ang_npts=194
dftgrid.partfun=ssf
dftgrid.pruned=SG1
dftgrid.grid_ao_pruned=True
dftgrid.grid_ao_threshold=1.0e-15
dftgrid.grid_ao_sparsity_ratio=0.9
tdhf.type=mrsf
tdhf.maxit=50
tdhf.maxit_zv=50
tdhf.multiplicity=1
tdhf.conv=1.0e-6
tdhf.nstate=3
tdhf.zvconv=1.0e-6
tdhf.nvdav=50
tdhf.tlf=2
tdhf.hfscale=-1.0
tdhf.cam_alpha=-1.0
tdhf.cam_beta=-1.0
tdhf.cam_mu=-1.0
tdhf.spc_coco=-1.0
tdhf.spc_ovov=-1.0
tdhf.spc_coov=-1.0
tdhf.conf_threshold=5.0e-2
properties.scf_prop=el_mom,mulliken
properties.td_prop=False
properties.grad=2
properties.nac=
properties.soc=
properties.export=True
properties.title=
properties.back_door=False
optimize.lib=scipy
optimize.optimizer=bfgs
optimize.step_size=0.1
optimize.step_tol=1e-2
optimize.maxit=30
optimize.mep_maxit=10
optimize.rmsd_grad=1e-4
optimize.rmsd_step=1e-3
optimize.max_grad=3e-4
optimize.max_step=2e-3
optimize.istate=1
optimize.jstate=2
optimize.kstate=3
optimize.imult=1
optimize.jmult=3
optimize.energy_shift=1e-6
optimize.energy_gap=1e-5
optimize.meci_search=penalty
optimize.pen_sigma=1.0
optimize.pen_alpha=0.0
optimize.pen_incre=1.0
optimize.gap_weight=1.0
optimize.init_scf=False
dlfind.printl=2
dlfind.icoord=3
dlfind.iopt=3
dlfind.ims=0
hess.type=numerical
hess.state=0
hess.dx=0.01
hess.nproc=1
hess.read=False
hess.restart=False
hess.temperature=298.15
hess.clean=False
nac.type=numerical
nac.dt=1
nac.dx=0.0001
nac.bp=False
nac.nproc=1
nac.restart=False
nac.clean=False
nac.states=1 2
nac.align=reorder
basis_set.library=
tests.exception=False
functional=bhhlyp

External program completed successfully in 18.049 sec

-------------------------------------------------   --------------------
FINAL SINGLE POINT ENERGY (From external program)      -231.346617755406
-------------------------------------------------   --------------------


------------------
CARTESIAN GRADIENT
------------------

   1   C   :   -0.000000004   -0.000000002    0.130696781
   2   C   :    0.107692121    0.033066014    0.036987361
   3   C   :   -0.107692149   -0.033066023    0.036987322
   4   H   :   -0.008354957   -0.002562849   -0.004797810
   5   H   :    0.008354988    0.002562858   -0.004797829
   6   C   :    0.107692152    0.033066024   -0.036987343
   7   C   :   -0.107692117   -0.033066013   -0.036987340
   8   H   :   -0.008354957   -0.002562849    0.004797811
   9   H   :    0.008354988    0.002562858    0.004797828
  10   C   :   -0.000000066   -0.000000020   -0.130696780
  11   H   :    0.000000001    0.000000000    0.009854361
  12   H   :    0.000000001    0.000000000   -0.009854361

Difference to translation invariance:
           :    0.0000000000    0.0000000000    0.0000000000

Difference to rotation invariance:
           :   -0.0000000005    0.0000000000   -0.0002289009

Norm of the Cartesian gradient     ...    0.3016474245
RMS gradient                       ...    0.0502745708
MAX gradient                       ...    0.1306967809
------------------------------------------------------------------------------
                         ORCA GEOMETRY RELAXATION STEP
------------------------------------------------------------------------------

Reading the OPT-File                    .... done
Getting information on internals        .... done
Copying old internal coords+grads       .... done
Making the new internal coordinates     .... (2022 redundants) done
Validating the new internal coordinates .... (2022 redundants) done
Calculating the B-matrix                .... done
Calculating the G,G- and P matrices     .... done
Transforming gradient to internals      .... done
Projecting the internal gradient        .... done
Number of atoms                         ....  12
Number of internal coordinates          ....  54
Current Energy                          ....  -231.346617755 Eh
Current gradient norm                   ....     0.301647425 Eh/bohr
Maximum allowed component of the step   ....  0.300
Current trust radius                    ....  0.300
Evaluating the initial hessian          ....  (Almloef) done
Projecting the Hessian                  .... done
Forming the augmented Hessian           .... done
Diagonalizing the augmented Hessian     .... done
Last element of RFO vector              ....  0.933017341
Lowest eigenvalues of augmented Hessian:
 -0.105888171  0.025737759  0.025737759  0.025737812  0.025737812
Length of the computed step             ....  0.385664222
Warning: the length of the step is outside the trust region - taking restricted step instead
The input lambda is                     ....     0.024738
   iter:   5  x=   -0.308812  g=    0.197067 f(x)=     0.000067
The output lambda is                    ....    -0.308812 (8 iterations)
The final length of the internal step   ....  0.300000000
Converting the step to Cartesian space:
 Initial RMS(Int)=    0.0408248290
Transforming coordinates:
 Iter   0:  RMS(Cart)=    0.0658968955 RMS(Int)=    1.2098885406
done
Storing new coordinates                 .... done

                                .--------------------.
          ----------------------|Geometry convergence|-------------------------
          Item                value                   Tolerance       Converged
          ---------------------------------------------------------------------
          RMS gradient        0.0374021180            0.0001000000      NO
          MAX gradient        0.1202036167            0.0003000000      NO
          RMS step            0.0408248290            0.0020000000      NO
          MAX step            0.1307625595            0.0040000000      NO
          ........................................................
          Max(Bonds)      0.0692      Max(Angles)    0.03
          Max(Dihed)        0.00      Max(Improp)    0.00
          ---------------------------------------------------------------------

The optimization has not yet converged - more geometry cycles are needed


    ---------------------------------------------------------------------------
                         Redundant Internal Coordinates
                            (Angstroem and degrees)

        Definition                    Value    dE/dq     Step     New-Value
    ----------------------------------------------------------------------------
     1. B(C   1,C   0)                1.3963 -0.120204  0.0692    1.4655   
     2. B(C   2,C   0)                1.3963 -0.120204  0.0692    1.4655   
     3. B(H   3,C   1)                1.0863  0.009967 -0.0078    1.0785   
     4. B(H   4,C   2)                1.0863  0.009967 -0.0078    1.0785   
     5. B(C   5,C   1)                1.3963 -0.092611  0.0533    1.4496   
     6. B(C   6,C   2)                1.3963 -0.092611  0.0533    1.4496   
     7. B(H   7,C   5)                1.0863  0.009967 -0.0078    1.0785   
     8. B(H   8,C   6)                1.0863  0.009967 -0.0078    1.0785   
     9. B(C   9,C   6)                1.3963 -0.120204  0.0692    1.4655   
    10. B(C   9,C   5)                1.3963 -0.120204  0.0692    1.4655   
    11. B(H  10,C   9)                1.0863  0.009854 -0.0077    1.0786   
    12. B(H  11,C   0)                1.0863  0.009854 -0.0077    1.0786   
    13. A(C   2,C   0,H  11)          120.00 -0.000167    0.01    120.01   
    14. A(C   1,C   0,C   2)          120.00  0.000335   -0.03    119.97   
    15. A(C   1,C   0,H  11)          120.00 -0.000167    0.01    120.01   
    16. A(H   3,C   1,C   5)          120.00 -0.000137    0.01    120.01   
    17. A(C   0,C   1,H   3)          120.00  0.000304   -0.03    119.97   
    18. A(C   0,C   1,C   5)          120.00 -0.000167    0.01    120.01   
    19. A(H   4,C   2,C   6)          120.00 -0.000137    0.01    120.01   
    20. A(C   0,C   2,C   6)          120.00 -0.000167    0.01    120.01   
    21. A(C   0,C   2,H   4)          120.00  0.000304   -0.03    119.97   
    22. A(H   7,C   5,C   9)          120.00  0.000304   -0.03    119.97   
    23. A(C   1,C   5,C   9)          120.00 -0.000167    0.01    120.01   
    24. A(C   1,C   5,H   7)          120.00 -0.000137    0.01    120.01   
    25. A(H   8,C   6,C   9)          120.00  0.000304   -0.03    119.97   
    26. A(C   2,C   6,C   9)          120.00 -0.000167    0.01    120.01   
    27. A(C   2,C   6,H   8)          120.00 -0.000137    0.01    120.01   
    28. A(C   5,C   9,H  10)          120.00 -0.000167    0.01    120.01   
    29. A(C   5,C   9,C   6)          120.00  0.000335   -0.03    119.97   
    30. A(C   6,C   9,H  10)          120.00 -0.000167    0.01    120.01   
    31. D(C   5,C   1,C   0,C   2)      0.00 -0.000000    0.00      0.00   
    32. D(C   5,C   1,C   0,H  11)    180.00  0.000000   -0.00    180.00   
    33. D(H   3,C   1,C   0,H  11)     -0.00  0.000006   -0.00     -0.00   
    34. D(H   3,C   1,C   0,C   2)    180.00  0.000006   -0.00    180.00   
    35. D(C   6,C   2,C   0,C   1)     -0.00  0.000000   -0.00     -0.00   
    36. D(H   4,C   2,C   0,C   1)    180.00  0.000006   -0.00    180.00   
    37. D(H   4,C   2,C   0,H  11)     -0.00  0.000006   -0.00     -0.00   
    38. D(C   6,C   2,C   0,H  11)    180.00 -0.000000    0.00    180.00   
    39. D(C   9,C   5,C   1,H   3)   -180.00 -0.000006    0.00   -180.00   
    40. D(C   9,C   5,C   1,C   0)      0.00  0.000000   -0.00     -0.00   
    41. D(H   7,C   5,C   1,H   3)      0.00  0.000000   -0.00     -0.00   
    42. D(H   7,C   5,C   1,C   0)    180.00  0.000006   -0.00    180.00   
    43. D(C   9,C   6,C   2,C   0)      0.00  0.000000   -0.00     -0.00   
    44. D(H   8,C   6,C   2,H   4)      0.00 -0.000000    0.00      0.00   
    45. D(H   8,C   6,C   2,C   0)    180.00  0.000006   -0.00    180.00   
    46. D(C   9,C   6,C   2,H   4)   -180.00 -0.000006    0.00   -180.00   
    47. D(H  10,C   9,C   6,H   8)      0.00 -0.000006    0.00      0.00   
    48. D(C   5,C   9,C   6,H   8)   -180.00 -0.000006    0.00   -180.00   
    49. D(C   5,C   9,C   6,C   2)      0.00 -0.000000    0.00      0.00   
    50. D(H  10,C   9,C   5,H   7)      0.00 -0.000006    0.00      0.00   
    51. D(H  10,C   9,C   5,C   1)    180.00  0.000000   -0.00    180.00   
    52. D(H  10,C   9,C   6,C   2)    180.00 -0.000000    0.00    180.00   
    53. D(C   6,C   9,C   5,H   7)   -180.00 -0.000006    0.00   -180.00   
    54. D(C   6,C   9,C   5,C   1)     -0.00  0.000000   -0.00     -0.00   
    ----------------------------------------------------------------------------

Geometry step timings:
Preparation and reading OPT file:      0.000 s ( 9.494 %)
Internal coordinates            :      0.000 s ( 2.668 %)
B/P matrices and projection     :      0.000 s (17.576 %)
Hessian update/contruction      :      0.000 s ( 7.258 %)
Making the step                 :      0.001 s (24.009 %)
Converting the step to Cartesian:      0.000 s ( 3.099 %)
Storing new data                :      0.000 s ( 2.158 %)
Checking convergence            :      0.000 s ( 0.353 %)
Final printing                  :      0.001 s (32.523 %)
Total time                      :      0.003 s

Time for energy+gradient        :     18.053 s
Time for complete geometry iter :     18.804 s

         *************************************************************
         *                GEOMETRY OPTIMIZATION CYCLE   2            *
         *************************************************************
---------------------------------
CARTESIAN COORDINATES (ANGSTROEM)
---------------------------------
  C     -1.394304    0.343010    0.270504
  C     -2.607496   -0.029214    1.003564
  C     -0.181111    0.715235    1.003564
  H     -3.500332   -0.303130    0.464103
  H      0.711725    0.989151    0.464103
  C     -2.607496   -0.029214    2.453206
  C     -0.181111    0.715235    2.453206
  H     -3.500332   -0.303130    2.992667
  H      0.711725    0.989151    2.992667
  C     -1.394304    0.343010    3.186266
  H     -1.394304    0.343010    4.264873
  H     -1.394304    0.343010   -0.808103

----------------------------
CARTESIAN COORDINATES (A.U.)
----------------------------
  NO LB      ZA    FRAG     MASS         X           Y           Z
   0 C     6.0000    0    12.011   -2.634852    0.648196    0.511179
   1 C     6.0000    0    12.011   -4.927454   -0.055206    1.896461
   2 C     6.0000    0    12.011   -0.342250    1.351597    1.896461
   3 H     1.0000    0     1.008   -6.614669   -0.572833    0.877028
   4 H     1.0000    0     1.008    1.344965    1.869225    0.877028
   5 C     6.0000    0    12.011   -4.927454   -0.055206    4.635888
   6 C     6.0000    0    12.011   -0.342250    1.351597    4.635888
   7 H     1.0000    0     1.008   -6.614669   -0.572833    5.655321
   8 H     1.0000    0     1.008    1.344965    1.869225    5.655320
   9 C     6.0000    0    12.011   -2.634852    0.648196    6.021170
  10 H     1.0000    0     1.008   -2.634852    0.648196    8.059443
  11 H     1.0000    0     1.008   -2.634852    0.648196   -1.527094

--------------------------------
INTERNAL COORDINATES (ANGSTROEM)
--------------------------------
 C      0   0   0     0.000000000000     0.00000000     0.00000000
 C      1   0   0     1.465524960864     0.00000000     0.00000000
 C      1   2   0     1.465524961270   119.97316875     0.00000000
 H      2   1   3     1.078519341334   119.97427081   179.99896399
 H      3   1   2     1.078519312581   119.97427028   179.99896391
 C      2   1   3     1.449642631040   120.01341508     0.00000000
 C      3   1   2     1.449642602600   120.01341616     0.00000000
 H      6   2   1     1.078519340965   120.01231407   179.99896353
 H      7   3   1     1.078519312846   120.01231358   179.99896356
 C      7   3   1     1.465524939347   120.01341620     0.00000000
 H     10   7   3     1.078607496318   120.01341567   180.00000000
 H      1   2   3     1.078607496328   120.01341550   180.00000000

---------------------------
INTERNAL COORDINATES (A.U.)
---------------------------
 C      0   0   0     0.000000000000     0.00000000     0.00000000
 C      1   0   0     2.769440818458     0.00000000     0.00000000
 C      1   2   0     2.769440819226   119.97316875     0.00000000
 H      2   1   3     2.038106185258   119.97427081   179.99896399
 H      3   1   2     2.038106130924   119.97427028   179.99896391
 C      2   1   3     2.739427564723   120.01341508     0.00000000
 C      3   1   2     2.739427510980   120.01341616     0.00000000
 H      6   2   1     2.038106184560   120.01231407   179.99896353
 H      7   3   1     2.038106131424   120.01231358   179.99896356
 C      7   3   1     2.769440777798   120.01341620     0.00000000
 H     10   7   3     2.038272774035   120.01341567   180.00000000
 H      1   2   3     2.038272774054   120.01341550   180.00000000

Calling /home/x_rompe/bin/oqp_orca_wrapper_python benzene_CI_EXT.extinp.tmp --conical -s 1 2 -b 6-31g*  > benzene_CI.lastext ...  done

External program completed successfully in 15.648 sec
------------------------------------------------------------------------------
                         ORCA GEOMETRY RELAXATION STEP
------------------------------------------------------------------------------

Reading the OPT-File                    .... done
Getting information on internals        .... done
Copying old internal coords+grads       .... done
Making the new internal coordinates     .... (2022 redundants) done
Validating the new internal coordinates .... (2022 redundants) done
Calculating the B-matrix                .... done
Calculating the G,G- and P matrices     .... done
Transforming gradient to internals      .... done
Projecting the internal gradient        .... done
Number of atoms                         ....  12
Number of internal coordinates          ....  54
Current Energy                          ....  -231.400061255 Eh
Current gradient norm                   ....     0.124247307 Eh/bohr
Maximum allowed component of the step   ....  0.300
Current trust radius                    ....  0.300
Updating the Hessian (BFGS)             .... done
Forming the augmented Hessian           .... done
Diagonalizing the augmented Hessian     .... done
Last element of RFO vector              ....  0.980939114
Lowest eigenvalues of augmented Hessian:
 -0.022058689  0.025737759  0.025737759  0.025737812  0.025737812
Length of the computed step             ....  0.198091139
The final length of the internal step   ....  0.198091139
Converting the step to Cartesian space:
 Initial RMS(Int)=    0.0269567896
Transforming coordinates:
 Iter   0:  RMS(Cart)=    0.0423083225 RMS(Int)=    0.8554580524
done
Storing new coordinates                 .... done
The predicted energy change is          ....    -0.011462137
Previously predicted energy change      ....    -0.055102658
Actually observed energy change         ....    -0.053443500
Ratio of predicted to observed change   ....     0.969889694
New trust radius                        ....     0.450000000

                                .--------------------.
          ----------------------|Geometry convergence|-------------------------
          Item                value                   Tolerance       Converged
          ---------------------------------------------------------------------
          Energy change      -0.0534434998            0.0000050000      NO
          RMS gradient        0.0151836834            0.0001000000      NO
          MAX gradient        0.0480158292            0.0003000000      NO
          RMS step            0.0269567896            0.0020000000      NO
          MAX step            0.0839188037            0.0040000000      NO
          ........................................................
          Max(Bonds)      0.0444      Max(Angles)    0.18
          Max(Dihed)        0.01      Max(Improp)    0.00
          ---------------------------------------------------------------------

The optimization has not yet converged - more geometry cycles are needed


    ---------------------------------------------------------------------------
                         Redundant Internal Coordinates
                            (Angstroem and degrees)

        Definition                    Value    dE/dq     Step     New-Value
    ----------------------------------------------------------------------------
     1. B(C   1,C   0)                1.4655 -0.048001  0.0444    1.5099   
     2. B(C   2,C   0)                1.4655 -0.048016  0.0444    1.5099   
     3. B(H   3,C   1)                1.0785  0.004890 -0.0070    1.0715   
     4. B(H   4,C   2)                1.0785  0.004890 -0.0070    1.0715   
     5. B(C   5,C   1)                1.4496 -0.039261  0.0374    1.4870   
     6. B(C   6,C   2)                1.4496 -0.039261  0.0374    1.4870   
     7. B(H   7,C   5)                1.0785  0.004890 -0.0070    1.0715   
     8. B(H   8,C   6)                1.0785  0.004889 -0.0070    1.0715   
     9. B(C   9,C   6)                1.4655 -0.048001  0.0444    1.5099   
    10. B(C   9,C   5)                1.4655 -0.048016  0.0444    1.5099   
    11. B(H  10,C   9)                1.0786  0.004891 -0.0070    1.0716   
    12. B(H  11,C   0)                1.0786  0.004891 -0.0070    1.0716   
    13. A(C   2,C   0,H  11)          120.01  0.000105   -0.03    119.98   
    14. A(C   1,C   0,C   2)          119.97 -0.000210    0.06    120.03   
    15. A(C   1,C   0,H  11)          120.01  0.000105   -0.03    119.98   
    16. A(H   3,C   1,C   5)          120.01 -0.000731    0.18    120.19   
    17. A(C   0,C   1,H   3)          119.97  0.000626   -0.15    119.83   
    18. A(C   0,C   1,C   5)          120.01  0.000105   -0.03    119.98   
    19. A(H   4,C   2,C   6)          120.01 -0.000731    0.18    120.19   
    20. A(C   0,C   2,C   6)          120.01  0.000105   -0.03    119.98   
    21. A(C   0,C   2,H   4)          119.97  0.000626   -0.15    119.83   
    22. A(H   7,C   5,C   9)          119.97  0.000626   -0.15    119.83   
    23. A(C   1,C   5,C   9)          120.01  0.000105   -0.03    119.98   
    24. A(C   1,C   5,H   7)          120.01 -0.000731    0.18    120.19   
    25. A(H   8,C   6,C   9)          119.97  0.000626   -0.15    119.83   
    26. A(C   2,C   6,C   9)          120.01  0.000105   -0.03    119.98   
    27. A(C   2,C   6,H   8)          120.01 -0.000731    0.18    120.19   
    28. A(C   5,C   9,H  10)          120.01  0.000105   -0.03    119.98   
    29. A(C   5,C   9,C   6)          119.97 -0.000210    0.06    120.03   
    30. A(C   6,C   9,H  10)          120.01  0.000105   -0.03    119.98   
    31. D(C   5,C   1,C   0,C   2)      0.00  0.000000   -0.00     -0.00   
    32. D(C   5,C   1,C   0,H  11)    180.00 -0.000000    0.00    180.00   
    33. D(H   3,C   1,C   0,H  11)     -0.00  0.000005   -0.01     -0.01   
    34. D(H   3,C   1,C   0,C   2)    180.00  0.000005   -0.01    179.99   
    35. D(C   6,C   2,C   0,C   1)     -0.00 -0.000000    0.00      0.00   
    36. D(H   4,C   2,C   0,C   1)    180.00  0.000005   -0.01    179.99   
    37. D(H   4,C   2,C   0,H  11)     -0.00  0.000005   -0.01     -0.01   
    38. D(C   6,C   2,C   0,H  11)   -180.00 -0.000000    0.00   -180.00   
    39. D(C   9,C   5,C   1,H   3)   -180.00 -0.000005    0.01   -179.99   
    40. D(C   9,C   5,C   1,C   0)     -0.00 -0.000000    0.00      0.00   
    41. D(H   7,C   5,C   1,H   3)     -0.00  0.000000   -0.00     -0.00   
    42. D(H   7,C   5,C   1,C   0)    180.00  0.000005   -0.01    179.99   
    43. D(C   9,C   6,C   2,C   0)     -0.00  0.000000   -0.00     -0.00   
    44. D(H   8,C   6,C   2,H   4)      0.00 -0.000000    0.00      0.00   
    45. D(H   8,C   6,C   2,C   0)    180.00  0.000005   -0.01    179.99   
    46. D(C   9,C   6,C   2,H   4)   -180.00 -0.000005    0.01   -179.99   
    47. D(H  10,C   9,C   6,H   8)      0.00 -0.000005    0.01      0.01   
    48. D(C   5,C   9,C   6,H   8)   -180.00 -0.000005    0.01   -179.99   
    49. D(C   5,C   9,C   6,C   2)      0.00 -0.000000    0.00      0.00   
    50. D(H  10,C   9,C   5,H   7)      0.00 -0.000005    0.01      0.01   
    51. D(H  10,C   9,C   5,C   1)    180.00  0.000000   -0.00    180.00   
    52. D(H  10,C   9,C   6,C   2)   -180.00 -0.000000    0.00   -180.00   
    53. D(C   6,C   9,C   5,H   7)   -180.00 -0.000005    0.01   -179.99   
    54. D(C   6,C   9,C   5,C   1)     -0.00  0.000000   -0.00     -0.00   
    ----------------------------------------------------------------------------

Geometry step timings:
Preparation and reading OPT file:      0.000 s ( 9.769 %)
Internal coordinates            :      0.000 s ( 1.896 %)
B/P matrices and projection     :      0.000 s (15.210 %)
Hessian update/contruction      :      0.001 s (22.218 %)
Making the step                 :      0.000 s (12.325 %)
Converting the step to Cartesian:      0.000 s ( 2.185 %)
Storing new data                :      0.000 s ( 1.525 %)
Checking convergence            :      0.000 s ( 0.948 %)
Final printing                  :      0.001 s (33.842 %)
Total time                      :      0.002 s

Time for energy+gradient        :     15.653 s
Time for complete geometry iter :     16.006 s

         *************************************************************
         *                GEOMETRY OPTIMIZATION CYCLE   3            *
         *************************************************************
---------------------------------
CARTESIAN COORDINATES (ANGSTROEM)
---------------------------------
  C     -1.394312    0.343008    0.230296
  C     -2.644612   -0.040644    0.984880
  C     -0.143996    0.726665    0.984891
  H     -3.530108   -0.312241    0.446057
  H      0.741501    0.998262    0.446068
  C     -2.644612   -0.040644    2.471879
  C     -0.143996    0.726665    2.471890
  H     -3.530108   -0.312241    3.010702
  H      0.741501    0.998262    3.010713
  C     -1.394295    0.343013    3.226474
  H     -1.394294    0.343013    4.298054
  H     -1.394313    0.343008   -0.841284

----------------------------
CARTESIAN COORDINATES (A.U.)
----------------------------
  NO LB      ZA    FRAG     MASS         X           Y           Z
   0 C     6.0000    0    12.011   -2.634868    0.648191    0.435197
   1 C     6.0000    0    12.011   -4.997591   -0.076807    1.861154
   2 C     6.0000    0    12.011   -0.272112    1.373199    1.861174
   3 H     1.0000    0     1.008   -6.670938   -0.590050    0.842925
   4 H     1.0000    0     1.008    1.401234    1.886441    0.842947
   5 C     6.0000    0    12.011   -4.997592   -0.076807    4.671175
   6 C     6.0000    0    12.011   -0.272112    1.373199    4.671195
   7 H     1.0000    0     1.008   -6.670938   -0.590050    5.689402
   8 H     1.0000    0     1.008    1.401234    1.886441    5.689423
   9 C     6.0000    0    12.011   -2.634836    0.648201    6.097152
  10 H     1.0000    0     1.008   -2.634834    0.648201    8.122145
  11 H     1.0000    0     1.008   -2.634870    0.648190   -1.589796

--------------------------------
INTERNAL COORDINATES (ANGSTROEM)
--------------------------------
 C      0   0   0     0.000000000000     0.00000000     0.00000000
 C      1   0   0     1.509912142521     0.00000000     0.00000000
 C      1   2   0     1.509932845796   120.03260060     0.00000000
 H      2   1   3     1.071540960287   119.82763071   179.99311043
 H      3   1   2     1.071540383566   119.82767663   179.99311160
 C      2   1   3     1.486999178457   119.98370188     0.00000000
 C      3   1   2     1.486999105556   119.98369752     0.00000000
 H      6   2   1     1.071540348517   120.18862681   179.99308576
 H      7   3   1     1.071540995651   120.18866571   179.99308273
 C      7   3   1     1.509912087618   119.98370468     0.00000000
 H     10   7   3     1.071579984232   119.98365751   180.00000148
 H      1   2   3     1.071579984076   119.98365734   180.00000121

---------------------------
INTERNAL COORDINATES (A.U.)
---------------------------
 C      0   0   0     0.000000000000     0.00000000     0.00000000
 C      1   0   0     2.853320435648     0.00000000     0.00000000
 C      1   2   0     2.853359559166   120.03260060     0.00000000
 H      2   1   3     2.024918956222   119.82763071   179.99311043
 H      3   1   2     2.024917866377   119.82767663   179.99311160
 C      2   1   3     2.810021208649   119.98370188     0.00000000
 C      3   1   2     2.810021070887   119.98369752     0.00000000
 H      6   2   1     2.024917800144   120.18862681   179.99308576
 H      7   3   1     2.024919023049   120.18866571   179.99308273
 C      7   3   1     2.853320331895   119.98370468     0.00000000
 H     10   7   3     2.024992700790   119.98365751   180.00000148
 H      1   2   3     2.024992700495   119.98365734   180.00000121

Calling /home/x_rompe/bin/oqp_orca_wrapper_python benzene_CI_EXT.extinp.tmp --conical -s 1 2 -b 6-31g*  > benzene_CI.lastext ...  done

External program completed successfully in 15.815 sec
------------------------------------------------------------------------------
                         ORCA GEOMETRY RELAXATION STEP
------------------------------------------------------------------------------

Reading the OPT-File                    .... done
Getting information on internals        .... done
Copying old internal coords+grads       .... done
Making the new internal coordinates     .... (2022 redundants) done
Validating the new internal coordinates .... (2022 redundants) done
Calculating the B-matrix                .... done
Calculating the G,G- and P matrices     .... done
Transforming gradient to internals      .... done
Projecting the internal gradient        .... done
Number of atoms                         ....  12
Number of internal coordinates          ....  54
Current Energy                          ....  -231.412294003 Eh
Current gradient norm                   ....     0.028886820 Eh/bohr
Maximum allowed component of the step   ....  0.300
Current trust radius                    ....  0.450
Updating the Hessian (BFGS)             .... done
Forming the augmented Hessian           .... done
Diagonalizing the augmented Hessian     .... done
Last element of RFO vector              ....  0.997657921
Lowest eigenvalues of augmented Hessian:
 -0.001970861  0.025737759  0.025737759  0.025737812  0.025737812
Length of the computed step             ....  0.068561403
The final length of the internal step   ....  0.068561403
Converting the step to Cartesian space:
 Initial RMS(Int)=    0.0093300251
Transforming coordinates:
 Iter   0:  RMS(Cart)=    0.0162034139 RMS(Int)=    0.8550841228
done
Storing new coordinates                 .... done
The predicted energy change is          ....    -0.000990063
Previously predicted energy change      ....    -0.011462137
Actually observed energy change         ....    -0.012232748
Ratio of predicted to observed change   ....     1.067230990
New trust radius                        ....     0.675000000

                                .--------------------.
          ----------------------|Geometry convergence|-------------------------
          Item                value                   Tolerance       Converged
          ---------------------------------------------------------------------
          Energy change      -0.0122327479            0.0000050000      NO
          RMS gradient        0.0039173363            0.0001000000      NO
          MAX gradient        0.0126758742            0.0003000000      NO
          RMS step            0.0093300251            0.0020000000      NO
          MAX step            0.0298046325            0.0040000000      NO
          ........................................................
          Max(Bonds)      0.0158      Max(Angles)    0.16
          Max(Dihed)        0.02      Max(Improp)    0.00
          ---------------------------------------------------------------------

The optimization has not yet converged - more geometry cycles are needed


    ---------------------------------------------------------------------------
                         Redundant Internal Coordinates
                            (Angstroem and degrees)

        Definition                    Value    dE/dq     Step     New-Value
    ----------------------------------------------------------------------------
     1. B(C   1,C   0)                1.5099 -0.012676  0.0158    1.5257   
     2. B(C   2,C   0)                1.5099 -0.012559  0.0156    1.5256   
     3. B(H   3,C   1)                1.0715 -0.000086  0.0002    1.0717   
     4. B(H   4,C   2)                1.0715 -0.000087  0.0002    1.0717   
     5. B(C   5,C   1)                1.4870 -0.009699  0.0125    1.4995   
     6. B(C   6,C   2)                1.4870 -0.009698  0.0125    1.4995   
     7. B(H   7,C   5)                1.0715 -0.000087  0.0002    1.0717   
     8. B(H   8,C   6)                1.0715 -0.000086  0.0002    1.0717   
     9. B(C   9,C   6)                1.5099 -0.012676  0.0158    1.5257   
    10. B(C   9,C   5)                1.5099 -0.012559  0.0156    1.5256   
    11. B(H  10,C   9)                1.0716 -0.000185  0.0004    1.0719   
    12. B(H  11,C   0)                1.0716 -0.000185  0.0004    1.0719   
    13. A(C   2,C   0,H  11)          119.98  0.000259   -0.05    119.93   
    14. A(C   1,C   0,C   2)          120.03 -0.000514    0.11    120.14   
    15. A(C   1,C   0,H  11)          119.98  0.000255   -0.05    119.93   
    16. A(H   3,C   1,C   5)          120.19 -0.000678    0.16    120.35   
    17. A(C   0,C   1,H   3)          119.83  0.000421   -0.11    119.72   
    18. A(C   0,C   1,C   5)          119.98  0.000258   -0.05    119.93   
    19. A(H   4,C   2,C   6)          120.19 -0.000680    0.16    120.35   
    20. A(C   0,C   2,C   6)          119.98  0.000257   -0.05    119.93   
    21. A(C   0,C   2,H   4)          119.83  0.000423   -0.11    119.72   
    22. A(H   7,C   5,C   9)          119.83  0.000423   -0.11    119.72   
    23. A(C   1,C   5,C   9)          119.98  0.000257   -0.05    119.93   
    24. A(C   1,C   5,H   7)          120.19 -0.000680    0.16    120.35   
    25. A(H   8,C   6,C   9)          119.83  0.000421   -0.11    119.72   
    26. A(C   2,C   6,C   9)          119.98  0.000258   -0.05    119.93   
    27. A(C   2,C   6,H   8)          120.19 -0.000678    0.16    120.35   
    28. A(C   5,C   9,H  10)          119.98  0.000259   -0.05    119.93   
    29. A(C   5,C   9,C   6)          120.03 -0.000514    0.11    120.14   
    30. A(C   6,C   9,H  10)          119.98  0.000255   -0.05    119.93   
    31. D(C   5,C   1,C   0,C   2)     -0.00 -0.000000    0.00      0.00   
    32. D(C   5,C   1,C   0,H  11)   -180.00  0.000000   -0.00   -180.00   
    33. D(H   3,C   1,C   0,H  11)     -0.01  0.000006   -0.02     -0.02   
    34. D(H   3,C   1,C   0,C   2)    179.99  0.000006   -0.02    179.98   
    35. D(C   6,C   2,C   0,C   1)      0.00  0.000000   -0.00     -0.00   
    36. D(H   4,C   2,C   0,C   1)    179.99  0.000006   -0.02    179.98   
    37. D(H   4,C   2,C   0,H  11)     -0.01  0.000006   -0.02     -0.02   
    38. D(C   6,C   2,C   0,H  11)   -180.00 -0.000000    0.00   -180.00   
    39. D(C   9,C   5,C   1,H   3)   -179.99 -0.000006    0.02   -179.98   
    40. D(C   9,C   5,C   1,C   0)      0.00  0.000000   -0.00     -0.00   
    41. D(H   7,C   5,C   1,H   3)     -0.00 -0.000000    0.00      0.00   
    42. D(H   7,C   5,C   1,C   0)    179.99  0.000006   -0.02    179.98   
    43. D(C   9,C   6,C   2,C   0)     -0.00 -0.000000    0.00      0.00   
    44. D(H   8,C   6,C   2,H   4)      0.00  0.000000   -0.00     -0.00   
    45. D(H   8,C   6,C   2,C   0)    179.99  0.000006   -0.02    179.98   
    46. D(C   9,C   6,C   2,H   4)   -179.99 -0.000006    0.02   -179.98   
    47. D(H  10,C   9,C   6,H   8)      0.01 -0.000006    0.02      0.02   
    48. D(C   5,C   9,C   6,H   8)   -179.99 -0.000006    0.02   -179.98   
    49. D(C   5,C   9,C   6,C   2)      0.00  0.000000   -0.00     -0.00   
    50. D(H  10,C   9,C   5,H   7)      0.01 -0.000006    0.02      0.02   
    51. D(H  10,C   9,C   5,C   1)    180.00  0.000000   -0.00    180.00   
    52. D(H  10,C   9,C   6,C   2)   -180.00 -0.000000    0.00   -180.00   
    53. D(C   6,C   9,C   5,H   7)   -179.99 -0.000006    0.02   -179.98   
    54. D(C   6,C   9,C   5,C   1)     -0.00 -0.000000    0.00      0.00   
    ----------------------------------------------------------------------------

Geometry step timings:
Preparation and reading OPT file:      0.000 s (14.489 %)
Internal coordinates            :      0.000 s ( 1.816 %)
B/P matrices and projection     :      0.000 s (14.805 %)
Hessian update/contruction      :      0.000 s ( 8.606 %)
Making the step                 :      0.000 s (15.199 %)
Converting the step to Cartesian:      0.000 s ( 2.487 %)
Storing new data                :      0.000 s ( 1.816 %)
Checking convergence            :      0.000 s ( 1.145 %)
Final printing                  :      0.001 s (39.518 %)
Total time                      :      0.003 s

Time for energy+gradient        :     15.819 s
Time for complete geometry iter :     16.178 s

         *************************************************************
         *                GEOMETRY OPTIMIZATION CYCLE   4            *
         *************************************************************
---------------------------------
CARTESIAN COORDINATES (ANGSTROEM)
---------------------------------
  C     -1.394258    0.343025    0.217440
  C     -2.658266   -0.044950    0.978670
  C     -0.130343    0.730971    0.978616
  H     -3.542488   -0.315971    0.437114
  H      0.753878    1.001991    0.437053
  C     -2.658265   -0.044950    2.478154
  C     -0.130341    0.730971    2.478100
  H     -3.542485   -0.315970    3.019718
  H      0.753881    1.001992    3.019656
  C     -1.394349    0.342996    3.239330
  H     -1.394356    0.342994    4.311264
  H     -1.394251    0.343027   -0.854494

----------------------------
CARTESIAN COORDINATES (A.U.)
----------------------------
  NO LB      ZA    FRAG     MASS         X           Y           Z
   0 C     6.0000    0    12.011   -2.634765    0.648223    0.410903
   1 C     6.0000    0    12.011   -5.023395   -0.084943    1.849417
   2 C     6.0000    0    12.011   -0.246312    1.381334    1.849316
   3 H     1.0000    0     1.008   -6.694332   -0.597099    0.826025
   4 H     1.0000    0     1.008    1.424623    1.893489    0.825910
   5 C     6.0000    0    12.011   -5.023392   -0.084943    4.683033
   6 C     6.0000    0    12.011   -0.246309    1.381335    4.682931
   7 H     1.0000    0     1.008   -6.694327   -0.597097    5.706440
   8 H     1.0000    0     1.008    1.424628    1.893490    5.706322
   9 C     6.0000    0    12.011   -2.634938    0.648169    6.121446
  10 H     1.0000    0     1.008   -2.634951    0.648166    8.147107
  11 H     1.0000    0     1.008   -2.634752    0.648226   -1.614759

--------------------------------
INTERNAL COORDINATES (ANGSTROEM)
--------------------------------
 C      0   0   0     0.000000000000     0.00000000     0.00000000
 C      1   0   0     1.525684076432     0.00000000     0.00000000
 C      1   2   0     1.525572368376   120.13975055     0.00000000
 H      2   1   3     1.071719644321   119.71766500   179.97751403
 H      3   1   2     1.071722457807   119.71720682   179.97751501
 C      2   1   3     1.499484896619   119.93002527     0.00000000
 C      3   1   2     1.499484418032   119.93022442     0.00000000
 H      6   2   1     1.071722573696   120.35257360   179.97736916
 H      7   3   1     1.071719520428   120.35229721   179.97736833
 C      6   2   1     1.525572745511   119.93020572     0.00000000
 H     10   6   2     1.071934025333   119.92977997   179.99999915
 H      1   2   3     1.071934016022   119.93046866   179.99999355

---------------------------
INTERNAL COORDINATES (A.U.)
---------------------------
 C      0   0   0     0.000000000000     0.00000000     0.00000000
 C      1   0   0     2.883125071341     0.00000000     0.00000000
 C      1   2   0     2.882913973708   120.13975055     0.00000000
 H      2   1   3     2.025256620111   119.71766500   179.97751403
 H      3   1   2     2.025261936829   119.71720682   179.97751501
 C      2   1   3     2.833615796560   119.93002527     0.00000000
 C      3   1   2     2.833614892163   119.93022442     0.00000000
 H      6   2   1     2.025262155827   120.35257360   179.97736916
 H      7   3   1     2.025256385986   120.35229721   179.97736833
 C      6   2   1     2.882914686391   119.93020572     0.00000000
 H     10   6   2     2.025661741511   119.92977997   179.99999915
 H      1   2   3     2.025661723916   119.93046866   179.99999355

Calling /home/x_rompe/bin/oqp_orca_wrapper_python benzene_CI_EXT.extinp.tmp --conical -s 1 2 -b 6-31g*  > benzene_CI.lastext ...  done

External program completed successfully in 15.841 sec
------------------------------------------------------------------------------
                         ORCA GEOMETRY RELAXATION STEP
------------------------------------------------------------------------------

Reading the OPT-File                    .... done
Getting information on internals        .... done
Copying old internal coords+grads       .... done
Making the new internal coordinates     .... (2022 redundants) done
Validating the new internal coordinates .... (2022 redundants) done
Calculating the B-matrix                .... done
Calculating the G,G- and P matrices     .... done
Transforming gradient to internals      .... done
Projecting the internal gradient        .... done
Number of atoms                         ....  12
Number of internal coordinates          ....  54
Current Energy                          ....  -231.412939620 Eh
Current gradient norm                   ....     0.004616105 Eh/bohr
Maximum allowed component of the step   ....  0.300
Current trust radius                    ....  0.675
Updating the Hessian (BFGS)             .... done
Forming the augmented Hessian           .... done
Diagonalizing the augmented Hessian     .... done
Last element of RFO vector              ....  0.999922396
Lowest eigenvalues of augmented Hessian:
 -0.000051867  0.025736687  0.025737759  0.025737759  0.025737812
Length of the computed step             ....  0.012459008
The final length of the internal step   ....  0.012459008
Converting the step to Cartesian space:
 Initial RMS(Int)=    0.0016954562
Transforming coordinates:
 Iter   0:  RMS(Cart)=    0.0027911002 RMS(Int)=    1.2092007471
done
Storing new coordinates                 .... done
The predicted energy change is          ....    -0.000025937
Previously predicted energy change      ....    -0.000990063
Actually observed energy change         ....    -0.000645617
Ratio of predicted to observed change   ....     0.652096882
New trust radius                        ....     0.675000000

                                .--------------------.
          ----------------------|Geometry convergence|-------------------------
          Item                value                   Tolerance       Converged
          ---------------------------------------------------------------------
          Energy change      -0.0006456169            0.0000050000      NO
          RMS gradient        0.0005757622            0.0001000000      NO
          MAX gradient        0.0020822865            0.0003000000      NO
          RMS step            0.0016954562            0.0020000000      YES
          MAX step            0.0055192330            0.0040000000      NO
          ........................................................
          Max(Bonds)      0.0029      Max(Angles)    0.11
          Max(Dihed)        0.03      Max(Improp)    0.00
          ---------------------------------------------------------------------

The optimization has not yet converged - more geometry cycles are needed


    ---------------------------------------------------------------------------
                         Redundant Internal Coordinates
                            (Angstroem and degrees)

        Definition                    Value    dE/dq     Step     New-Value
    ----------------------------------------------------------------------------
     1. B(C   1,C   0)                1.5257 -0.001498  0.0023    1.5280   
     2. B(C   2,C   0)                1.5256 -0.002081  0.0029    1.5285   
     3. B(H   3,C   1)                1.0717  0.000120 -0.0002    1.0715   
     4. B(H   4,C   2)                1.0717  0.000129 -0.0002    1.0715   
     5. B(C   5,C   1)                1.4995 -0.001007  0.0017    1.5012   
     6. B(C   6,C   2)                1.4995 -0.001005  0.0017    1.5012   
     7. B(H   7,C   5)                1.0717  0.000129 -0.0002    1.0715   
     8. B(H   8,C   6)                1.0717  0.000120 -0.0002    1.0715   
     9. B(C   9,C   6)                1.5257 -0.001496  0.0023    1.5280   
    10. B(C   9,C   5)                1.5256 -0.002082  0.0029    1.5285   
    11. B(H  10,C   9)                1.0719  0.000084 -0.0001    1.0718   
    12. B(H  11,C   0)                1.0719  0.000084 -0.0001    1.0718   
    13. A(C   2,C   0,H  11)          119.93  0.000269   -0.05    119.88   
    14. A(C   1,C   0,C   2)          120.14 -0.000556    0.10    120.24   
    15. A(C   1,C   0,H  11)          119.93  0.000287   -0.05    119.88   
    16. A(H   3,C   1,C   5)          120.35 -0.000540    0.11    120.46   
    17. A(C   0,C   1,H   3)          119.72  0.000264   -0.06    119.66   
    18. A(C   0,C   1,C   5)          119.93  0.000276   -0.05    119.88   
    19. A(H   4,C   2,C   6)          120.35 -0.000532    0.11    120.46   
    20. A(C   0,C   2,C   6)          119.93  0.000280   -0.05    119.88   
    21. A(C   0,C   2,H   4)          119.72  0.000252   -0.06    119.66   
    22. A(H   7,C   5,C   9)          119.72  0.000251   -0.06    119.66   
    23. A(C   1,C   5,C   9)          119.93  0.000281   -0.05    119.88   
    24. A(C   1,C   5,H   7)          120.35 -0.000533    0.11    120.46   
    25. A(H   8,C   6,C   9)          119.72  0.000264   -0.06    119.66   
    26. A(C   2,C   6,C   9)          119.93  0.000275   -0.05    119.88   
    27. A(C   2,C   6,H   8)          120.35 -0.000539    0.11    120.46   
    28. A(C   5,C   9,H  10)          119.93  0.000269   -0.05    119.88   
    29. A(C   5,C   9,C   6)          120.14 -0.000556    0.10    120.24   
    30. A(C   6,C   9,H  10)          119.93  0.000287   -0.05    119.88   
    31. D(C   5,C   1,C   0,C   2)      0.00  0.000000   -0.00     -0.00   
    32. D(C   5,C   1,C   0,H  11)    180.00 -0.000000    0.00    180.00   
    33. D(H   3,C   1,C   0,H  11)     -0.02  0.000013   -0.03     -0.06   
    34. D(H   3,C   1,C   0,C   2)    179.98  0.000013   -0.03    179.94   
    35. D(C   6,C   2,C   0,C   1)     -0.00 -0.000000    0.00      0.00   
    36. D(H   4,C   2,C   0,C   1)    179.98  0.000013   -0.03    179.94   
    37. D(H   4,C   2,C   0,H  11)     -0.02  0.000013   -0.03     -0.06   
    38. D(C   6,C   2,C   0,H  11)   -180.00  0.000000   -0.00   -180.00   
    39. D(C   9,C   5,C   1,H   3)   -179.98 -0.000013    0.03   -179.94   
    40. D(C   9,C   5,C   1,C   0)     -0.00 -0.000000    0.00      0.00   
    41. D(H   7,C   5,C   1,H   3)      0.00  0.000000   -0.00     -0.00   
    42. D(H   7,C   5,C   1,C   0)    179.98  0.000013   -0.03    179.94   
    43. D(C   9,C   6,C   2,C   0)      0.00  0.000000   -0.00     -0.00   
    44. D(H   8,C   6,C   2,H   4)     -0.00 -0.000000    0.00      0.00   
    45. D(H   8,C   6,C   2,C   0)    179.98  0.000013   -0.03    179.94   
    46. D(C   9,C   6,C   2,H   4)   -179.98 -0.000013    0.03   -179.94   
    47. D(H  10,C   9,C   6,H   8)      0.02 -0.000013    0.03      0.06   
    48. D(C   5,C   9,C   6,H   8)   -179.98 -0.000013    0.03   -179.94   
    49. D(C   5,C   9,C   6,C   2)     -0.00 -0.000000    0.00      0.00   
    50. D(H  10,C   9,C   5,H   7)      0.02 -0.000013    0.03      0.06   
    51. D(H  10,C   9,C   5,C   1)    180.00 -0.000000    0.00    180.00   
    52. D(H  10,C   9,C   6,C   2)   -180.00 -0.000000   -0.00   -180.00   
    53. D(C   6,C   9,C   5,H   7)   -179.98 -0.000013    0.03   -179.94   
    54. D(C   6,C   9,C   5,C   1)      0.00  0.000000   -0.00     -0.00   
    ----------------------------------------------------------------------------

Geometry step timings:
Preparation and reading OPT file:      0.000 s (13.594 %)
Internal coordinates            :      0.000 s ( 1.507 %)
B/P matrices and projection     :      0.000 s (15.742 %)
Hessian update/contruction      :      0.000 s (12.504 %)
Making the step                 :      0.000 s (13.434 %)
Converting the step to Cartesian:      0.000 s ( 1.956 %)
Storing new data                :      0.000 s ( 1.475 %)
Checking convergence            :      0.000 s ( 0.898 %)
Final printing                  :      0.001 s (38.827 %)
Total time                      :      0.003 s

Time for energy+gradient        :     15.844 s
Time for complete geometry iter :     16.205 s

         *************************************************************
         *                GEOMETRY OPTIMIZATION CYCLE   5            *
         *************************************************************
---------------------------------
CARTESIAN COORDINATES (ANGSTROEM)
---------------------------------
  C     -1.394497    0.342951    0.216393
  C     -2.660990   -0.046030    0.977670
  C     -0.127613    0.732052    0.977900
  H     -3.544182   -0.316348    0.434469
  H      0.755583    1.002371    0.434731
  C     -2.660995   -0.046032    2.478872
  C     -0.127619    0.732050    2.479099
  H     -3.544191   -0.316350    3.022041
  H      0.755573    1.002368    3.022299
  C     -1.394109    0.343070    3.240377
  H     -1.394080    0.343079    4.312183
  H     -1.394523    0.342943   -0.855413

----------------------------
CARTESIAN COORDINATES (A.U.)
----------------------------
  NO LB      ZA    FRAG     MASS         X           Y           Z
   0 C     6.0000    0    12.011   -2.635217    0.648084    0.408923
   1 C     6.0000    0    12.011   -5.028541   -0.086983    1.847529
   2 C     6.0000    0    12.011   -0.241154    1.383378    1.847963
   3 H     1.0000    0     1.008   -6.697533   -0.597810    0.821027
   4 H     1.0000    0     1.008    1.427845    1.894206    0.821523
   5 C     6.0000    0    12.011   -5.028552   -0.086987    4.684389
   6 C     6.0000    0    12.011   -0.241165    1.383374    4.684818
   7 H     1.0000    0     1.008   -6.697551   -0.597815    5.710830
   8 H     1.0000    0     1.008    1.427827    1.894201    5.711317
   9 C     6.0000    0    12.011   -2.634484    0.648309    6.123426
  10 H     1.0000    0     1.008   -2.634430    0.648325    8.148845
  11 H     1.0000    0     1.008   -2.635267    0.648069   -1.616497

--------------------------------
INTERNAL COORDINATES (ANGSTROEM)
--------------------------------
 C      0   0   0     0.000000000000     0.00000000     0.00000000
 C      1   0   0     1.528022817370     0.00000000     0.00000000
 C      1   2   0     1.528491337669   120.23677405     0.00000000
 H      2   1   3     1.071525832237   119.65795310   179.94477469
 H      3   1   2     1.071512903133   119.65974089   179.94474033
 C      2   1   3     1.501201676647   119.88192759     0.00000000
 C      3   1   2     1.501199092681   119.88129793     0.00000000
 H      6   2   1     1.071513073588   120.45898556   179.94428876
 H      7   3   1     1.071525681936   120.46004833   179.94432449
 C      7   3   1     1.528020738549   119.88202868     0.00000000
 H     10   7   3     1.071805707798   119.88020403   180.00000256
 H      1   2   3     1.071805733962   119.88020153   180.00002543

---------------------------
INTERNAL COORDINATES (A.U.)
---------------------------
 C      0   0   0     0.000000000000     0.00000000     0.00000000
 C      1   0   0     2.887544651213     0.00000000     0.00000000
 C      1   2   0     2.888430026264   120.23677405     0.00000000
 H      2   1   3     2.024890368349   119.65795310   179.94477469
 H      3   1   2     2.024865935884   119.65974089   179.94474033
 C      2   1   3     2.836860040647   119.88192759     0.00000000
 C      3   1   2     2.836855157658   119.88129793     0.00000000
 H      6   2   1     2.024866257998   120.45898556   179.94428876
 H      7   3   1     2.024890084322   120.46004833   179.94432449
 C      7   3   1     2.887540722809   119.88202868     0.00000000
 H     10   7   3     2.025419256511   119.88020403   180.00000256
 H      1   2   3     2.025419305954   119.88020153   180.00002543

Calling /home/x_rompe/bin/oqp_orca_wrapper_python benzene_CI_EXT.extinp.tmp --conical -s 1 2 -b 6-31g*  > benzene_CI.lastext ...  done

External program completed successfully in 15.834 sec
------------------------------------------------------------------------------
                         ORCA GEOMETRY RELAXATION STEP
------------------------------------------------------------------------------

Reading the OPT-File                    .... done
Getting information on internals        .... done
Copying old internal coords+grads       .... done
Making the new internal coordinates     .... (2022 redundants) done
Validating the new internal coordinates .... (2022 redundants) done
Calculating the B-matrix                .... done
Calculating the G,G- and P matrices     .... done
Transforming gradient to internals      .... done
Projecting the internal gradient        .... done
Number of atoms                         ....  12
Number of internal coordinates          ....  54
Current Energy                          ....  -231.412863497 Eh
Current gradient norm                   ....     0.003259035 Eh/bohr
Maximum allowed component of the step   ....  0.300
Current trust radius                    ....  0.675
Updating the Hessian (BFGS)             .... done
Forming the augmented Hessian           .... done
Diagonalizing the augmented Hessian     .... done
Last element of RFO vector              ....  0.999951485
Lowest eigenvalues of augmented Hessian:
 -0.000017531  0.025484694  0.025737759  0.025737760  0.025737812
Length of the computed step             ....  0.009850709
The final length of the internal step   ....  0.009850709
Converting the step to Cartesian space:
 Initial RMS(Int)=    0.0013405117
Transforming coordinates:
 Iter   0:  RMS(Cart)=    0.0019885967 RMS(Int)=    1.2091999129
done
Storing new coordinates                 .... done
The predicted energy change is          ....    -0.000008766
Previously predicted energy change      ....    -0.000025937
Actually observed energy change         ....     0.000076123
Ratio of predicted to observed change   ....     2.934853733
New trust radius                        ....     0.450000000

                                .--------------------.
          ----------------------|Geometry convergence|-------------------------
          Item                value                   Tolerance       Converged
          ---------------------------------------------------------------------
[...]
          Item                value                   Tolerance       Converged
          ---------------------------------------------------------------------
          Energy change      -0.0000006882            0.0000050000      YES
          RMS gradient        0.0000848928            0.0001000000      YES
          MAX gradient        0.0003047901            0.0003000000      NO
          RMS step            0.0003847428            0.0020000000      YES
          MAX step            0.0012147259            0.0040000000      YES
          ........................................................
          Max(Bonds)      0.0001      Max(Angles)    0.05
          Max(Dihed)        0.07      Max(Improp)    0.00
          ---------------------------------------------------------------------

       The step convergence is overachieved with 
       reasonable convergence on the gradient
       Convergence will therefore be signaled now


                    ***********************HURRAY********************
                    ***        THE OPTIMIZATION HAS CONVERGED     ***
                    *************************************************


    ---------------------------------------------------------------------------
                         Redundant Internal Coordinates

                          --- Optimized Parameters ---  
                            (Angstroem and degrees)

        Definition                    OldVal   dE/dq     Step     FinalVal
    ----------------------------------------------------------------------------
     1. B(C   1,C   0)                1.4480  0.000136  0.0000    1.4481   
     2. B(C   2,C   0)                1.3824 -0.000015 -0.0001    1.3823   
     3. B(H   3,C   1)                1.0838  0.000020  0.0000    1.0838   
     4. B(H   4,C   2)                1.0764 -0.000003  0.0000    1.0764   
     5. B(C   5,C   1)                1.4376 -0.000305 -0.0000    1.4376   
     6. B(C   6,C   2)                1.3817  0.000091  0.0001    1.3818   
     7. B(H   7,C   5)                1.0775  0.000008  0.0000    1.0775   
     8. B(H   8,C   6)                1.0770  0.000009 -0.0000    1.0770   
     9. B(C   9,C   6)                1.4481 -0.000176 -0.0001    1.4481   
    10. B(C   9,C   5)                1.4377  0.000261 -0.0000    1.4377   
    11. B(H  10,C   9)                1.0838 -0.000022  0.0000    1.0838   
    12. B(H  11,C   0)                1.0770 -0.000013  0.0000    1.0770   
    13. A(C   2,C   0,H  11)          124.05 -0.000033    0.02    124.07   
    14. A(C   1,C   0,C   2)          115.35  0.000005    0.00    115.35   
    15. A(C   1,C   0,H  11)          120.48  0.000029   -0.02    120.46   
    16. A(H   3,C   1,C   5)          118.75  0.000034    0.01    118.76   
    17. A(C   0,C   1,H   3)          118.09  0.000024   -0.02    118.08   
    18. A(C   0,C   1,C   5)          122.66 -0.000056    0.00    122.67   
    19. A(H   4,C   2,C   6)          123.91  0.000052   -0.01    123.90   
    20. A(C   0,C   2,C   6)          112.14  0.000040    0.00    112.15   
    21. A(C   0,C   2,H   4)          123.86 -0.000089    0.01    123.87   
    22. A(H   7,C   5,C   9)          119.68  0.000005   -0.03    119.65   
    23. A(C   1,C   5,C   9)           81.39  0.000156   -0.01     81.38   
    24. A(C   1,C   5,H   7)          119.65 -0.000063    0.01    119.66   
    25. A(H   8,C   6,C   9)          120.44  0.000004   -0.00    120.43   
    26. A(C   2,C   6,C   9)          115.40  0.000021   -0.01    115.40   
    27. A(C   2,C   6,H   8)          124.05 -0.000025    0.01    124.06   
    28. A(C   5,C   9,H  10)          118.73 -0.000071    0.03    118.76   
    29. A(C   5,C   9,C   6)          122.64 -0.000070    0.02    122.65   
    30. A(C   6,C   9,H  10)          118.13  0.000147   -0.05    118.09   
    31. D(C   5,C   1,C   0,C   2)    -42.34 -0.000002   -0.00    -42.34   
    32. D(C   5,C   1,C   0,H  11)    141.38 -0.000024    0.01    141.39   
    33. D(H   3,C   1,C   0,H  11)    -30.47 -0.000043    0.01    -30.46   
    34. D(H   3,C   1,C   0,C   2)    145.81 -0.000021   -0.00    145.81   
    35. D(C   6,C   2,C   0,C   1)     -7.32  0.000021    0.00     -7.32   
    36. D(H   4,C   2,C   0,C   1)    175.82 -0.000035    0.02    175.84   
    37. D(H   4,C   2,C   0,H  11)     -8.05 -0.000009    0.01     -8.04   
    38. D(C   6,C   2,C   0,H  11)    168.81  0.000048   -0.01    168.80   
    39. D(C   9,C   5,C   1,H   3)   -117.12 -0.000029   -0.01   -117.13   
    40. D(C   9,C   5,C   1,C   0)     71.08 -0.000047   -0.01     71.07   
    41. D(H   7,C   5,C   1,H   3)      2.22  0.000056   -0.04      2.18   
    42. D(H   7,C   5,C   1,C   0)   -169.58  0.000038   -0.04   -169.62   
    43. D(C   9,C   6,C   2,C   0)      7.33 -0.000046    0.00      7.33   
    44. D(H   8,C   6,C   2,H   4)      8.08 -0.000004   -0.07      8.01   
    45. D(H   8,C   6,C   2,C   0)   -168.77 -0.000056   -0.05   -168.83   
    46. D(C   9,C   6,C   2,H   4)   -175.81  0.000005   -0.02   -175.83   
    47. D(H  10,C   9,C   6,H   8)     30.32 -0.000097    0.07     30.39   
    48. D(C   5,C   9,C   6,H   8)   -141.44 -0.000142    0.05   -141.40   
    49. D(C   5,C   9,C   6,C   2)     42.30 -0.000149   -0.01     42.29   
    50. D(H  10,C   9,C   5,H   7)     -2.07 -0.000015   -0.01     -2.08   
    51. D(H  10,C   9,C   5,C   1)    117.25  0.000002   -0.01    117.24   
    52. D(H  10,C   9,C   6,C   2)   -145.94 -0.000105    0.02   -145.92   
    53. D(C   6,C   9,C   5,H   7)    169.65  0.000046    0.01    169.66   
    54. D(C   6,C   9,C   5,C   1)    -71.03  0.000063    0.01    -71.03   
    ----------------------------------------------------------------------------

Geometry step timings:
Preparation and reading OPT file:      0.001 s (15.660 %)
Internal coordinates            :      0.000 s ( 1.374 %)
B/P matrices and projection     :      0.001 s (13.223 %)
Hessian update/contruction      :      0.000 s ( 9.956 %)
Making the step                 :      0.001 s (13.378 %)
Converting the step to Cartesian:      0.000 s ( 1.867 %)
Storing new data                :      0.000 s ( 1.348 %)
Checking convergence            :      0.000 s ( 0.882 %)
Final printing                  :      0.002 s (42.261 %)
Total time                      :      0.004 s
                 *******************************************************
                 *** FINAL ENERGY EVALUATION AT THE STATIONARY POINT ***
                 ***               (AFTER   56 CYCLES)               ***
                 *******************************************************
---------------------------------
CARTESIAN COORDINATES (ANGSTROEM)
---------------------------------
  C     -1.331494    0.352610    0.368590
  C     -2.452323    0.149026    1.262556
  C     -0.110835    0.552463    0.985711
  H     -3.420330    0.533173    0.962631
  H      0.820363    0.652919    0.455185
  C     -2.369859   -0.680034    2.434109
  C     -0.234416    0.677965    2.356192
  H     -3.268399   -0.934276    2.971671
  H      0.558888    1.008016    3.005596
  C     -1.555560    0.414705    2.887356
  H     -1.883208    0.987155    3.747314
  H     -1.484472    0.402403   -0.696292

----------------------------
CARTESIAN COORDINATES (A.U.)
----------------------------
  NO LB      ZA    FRAG     MASS         X           Y           Z
   0 C     6.0000    0    12.011   -2.516158    0.666337    0.696535
   1 C     6.0000    0    12.011   -4.634218    0.281618    2.385884
   2 C     6.0000    0    12.011   -0.209448    1.044004    1.862725
   3 H     1.0000    0     1.008   -6.463488    1.007552    1.819110
   4 H     1.0000    0     1.008    1.550262    1.233839    0.860176
   5 C     6.0000    0    12.011   -4.478384   -1.285079    4.599799
   6 C     6.0000    0    12.011   -0.442981    1.281169    4.452558
   7 H     1.0000    0     1.008   -6.176379   -1.765526    5.615644
   8 H     1.0000    0     1.008    1.056146    1.904874    5.679753
   9 C     6.0000    0    12.011   -2.939583    0.783678    5.456313
  10 H     1.0000    0     1.008   -3.558747    1.865453    7.081398
  11 H     1.0000    0     1.008   -2.805245    0.760431   -1.315801

--------------------------------
INTERNAL COORDINATES (ANGSTROEM)
--------------------------------
 C      0   0   0     0.000000000000     0.00000000     0.00000000
 C      1   0   0     1.448059961632     0.00000000     0.00000000
 C      1   2   0     1.382312318214   115.35453557     0.00000000
 H      2   1   3     1.083772632127   118.07732028   145.80442985
 H      3   1   2     1.076419925983   123.87481653   175.84042170
 C      2   1   3     1.437594487762   122.66902161   317.65467356
 C      3   1   2     1.381752464188   112.14504603   352.68023091
 H      6   2   1     1.077490867943   119.65759201   190.38169143
 H      7   3   1     1.077028240992   124.05561453   191.17503766
 C      6   2   1     1.437695536654    81.38913830    71.07041180
 H     10   6   2     1.083780548931   118.75856148   117.23859993
 H      1   2   3     1.076965995942   120.46294141   183.72973939

---------------------------
INTERNAL COORDINATES (A.U.)
---------------------------
 C      0   0   0     0.000000000000     0.00000000     0.00000000
 C      1   0   0     2.736436752980     0.00000000     0.00000000
 C      1   2   0     2.612191712970   115.35453557     0.00000000
 H      2   1   3     2.048033466160   118.07732028   145.80442985
 H      3   1   2     2.034138865204   123.87481653   175.84042170
 C      2   1   3     2.716659873505   122.66902161   317.65467356
 C      3   1   2     2.611133742186   112.14504603   352.68023091
 H      6   2   1     2.036162652214   119.65759201   190.38169143
 H      7   3   1     2.035288413974   124.05561453   191.17503766
 C      6   2   1     2.716850828237    81.38913830    71.07041180
 H     10   6   2     2.048048426751   118.75856148   117.23859993
 H      1   2   3     2.035170787875   120.46294141   183.72973939

Calling /home/x_rompe/bin/oqp_orca_wrapper_python benzene_CI_EXT.extinp.tmp --conical -s 1 2 -b 6-31g*  ... 

MPI startup(): PMI server not found. Please set I_MPI_PMI_LIBRARY variable if it is not a singleton case.
input.charge=0
input.basis=6-31g*
input.functional=bhhlyp
input.method=tdhf
input.runtype=grad
input.system=benzene_CI.xyz
input.system2=
input.d4=False
guess.type=json
guess.file=EXT_ORCA_FOR_OQP_STATE_1.json
guess.file2=
guess.save_mol=True
guess.continue_geom=False
scf.type=rohf
scf.maxit=100
scf.forced_attempt=1
scf.maxdiis=7
scf.diis_reset_mod=10
scf.diis_reset_conv=0.005
scf.diis_method_threshold=2.0
scf.diis_type=cdiis
scf.vdiis_cdiis_switch=0.3
scf.vdiis_vshift_switch=0.003
scf.vshift_cdiis_switch=0.3
scf.vshift=0.0
scf.mom=False
scf.mom_switch=0.003
scf.pfon=False
scf.pfon_start_temp=2000.0
scf.pfon_cooling_rate=50.0
scf.pfon_nsmear=5.0
scf.multiplicity=3
scf.conv=1.0e-6
scf.incremental=True
scf.init_scf=no
scf.init_it=0
scf.save_molden=True
dftgrid.hfscale=-1.0
dftgrid.cam_flag=False
dftgrid.cam_alpha=-1.0
dftgrid.cam_beta=-1.0
dftgrid.cam_mu=-1.0
dftgrid.rad_type=mhl
dftgrid.rad_npts=50
dftgrid.ang_npts=194
dftgrid.partfun=ssf
dftgrid.pruned=SG1
dftgrid.grid_ao_pruned=True
dftgrid.grid_ao_threshold=1.0e-15
dftgrid.grid_ao_sparsity_ratio=0.9
tdhf.type=mrsf
tdhf.maxit=50
tdhf.maxit_zv=50
tdhf.multiplicity=1
tdhf.conv=1.0e-6
tdhf.nstate=3
tdhf.zvconv=1.0e-6
tdhf.nvdav=50
tdhf.tlf=2
tdhf.hfscale=-1.0
tdhf.cam_alpha=-1.0
tdhf.cam_beta=-1.0
tdhf.cam_mu=-1.0
tdhf.spc_coco=-1.0
tdhf.spc_ovov=-1.0
tdhf.spc_coov=-1.0
tdhf.conf_threshold=5.0e-2
properties.scf_prop=el_mom,mulliken
properties.td_prop=False
properties.grad=1
properties.nac=
properties.soc=
properties.export=True
properties.title=
properties.back_door=False
optimize.lib=scipy
optimize.optimizer=bfgs
optimize.step_size=0.1
optimize.step_tol=1e-2
optimize.maxit=30
optimize.mep_maxit=10
optimize.rmsd_grad=1e-4
optimize.rmsd_step=1e-3
optimize.max_grad=3e-4
optimize.max_step=2e-3
optimize.istate=1
optimize.jstate=2
optimize.kstate=3
optimize.imult=1
optimize.jmult=3
optimize.energy_shift=1e-6
optimize.energy_gap=1e-5
optimize.meci_search=penalty
optimize.pen_sigma=1.0
optimize.pen_alpha=0.0
optimize.pen_incre=1.0
optimize.gap_weight=1.0
optimize.init_scf=False
dlfind.printl=2
dlfind.icoord=3
dlfind.iopt=3
dlfind.ims=0
hess.type=numerical
hess.state=0
hess.dx=0.01
hess.nproc=1
hess.read=False
hess.restart=False
hess.temperature=298.15
hess.clean=False
nac.type=numerical
nac.dt=1
nac.dx=0.0001
nac.bp=False
nac.nproc=1
nac.restart=False
nac.clean=False
nac.states=1 2
nac.align=reorder
basis_set.library=
tests.exception=False
functional=bhhlyp
MPI startup(): PMI server not found. Please set I_MPI_PMI_LIBRARY variable if it is not a singleton case.
input.charge=0
input.basis=6-31g*
input.functional=bhhlyp
input.method=tdhf
input.runtype=grad
input.system=benzene_CI.xyz
input.system2=
input.d4=False
guess.type=json
guess.file=EXT_ORCA_FOR_OQP_STATE_1.json
guess.file2=
guess.save_mol=True
guess.continue_geom=False
scf.type=rohf
scf.maxit=100
scf.forced_attempt=1
scf.maxdiis=7
scf.diis_reset_mod=10
scf.diis_reset_conv=0.005
scf.diis_method_threshold=2.0
scf.diis_type=cdiis
scf.vdiis_cdiis_switch=0.3
scf.vdiis_vshift_switch=0.003
scf.vshift_cdiis_switch=0.3
scf.vshift=0.0
scf.mom=False
scf.mom_switch=0.003
scf.pfon=False
scf.pfon_start_temp=2000.0
scf.pfon_cooling_rate=50.0
scf.pfon_nsmear=5.0
scf.multiplicity=3
scf.conv=1.0e-6
scf.incremental=True
scf.init_scf=no
scf.init_it=0
scf.save_molden=True
dftgrid.hfscale=-1.0
dftgrid.cam_flag=False
dftgrid.cam_alpha=-1.0
dftgrid.cam_beta=-1.0
dftgrid.cam_mu=-1.0
dftgrid.rad_type=mhl
dftgrid.rad_npts=50
dftgrid.ang_npts=194
dftgrid.partfun=ssf
dftgrid.pruned=SG1
dftgrid.grid_ao_pruned=True
dftgrid.grid_ao_threshold=1.0e-15
dftgrid.grid_ao_sparsity_ratio=0.9
tdhf.type=mrsf
tdhf.maxit=50
tdhf.maxit_zv=50
tdhf.multiplicity=1
tdhf.conv=1.0e-6
tdhf.nstate=3
tdhf.zvconv=1.0e-6
tdhf.nvdav=50
tdhf.tlf=2
tdhf.hfscale=-1.0
tdhf.cam_alpha=-1.0
tdhf.cam_beta=-1.0
tdhf.cam_mu=-1.0
tdhf.spc_coco=-1.0
tdhf.spc_ovov=-1.0
tdhf.spc_coov=-1.0
tdhf.conf_threshold=5.0e-2
properties.scf_prop=el_mom,mulliken
properties.td_prop=False
properties.grad=2
properties.nac=
properties.soc=
properties.export=True
properties.title=
properties.back_door=False
optimize.lib=scipy
optimize.optimizer=bfgs
optimize.step_size=0.1
optimize.step_tol=1e-2
optimize.maxit=30
optimize.mep_maxit=10
optimize.rmsd_grad=1e-4
optimize.rmsd_step=1e-3
optimize.max_grad=3e-4
optimize.max_step=2e-3
optimize.istate=1
optimize.jstate=2
optimize.kstate=3
optimize.imult=1
optimize.jmult=3
optimize.energy_shift=1e-6
optimize.energy_gap=1e-5
optimize.meci_search=penalty
optimize.pen_sigma=1.0
optimize.pen_alpha=0.0
optimize.pen_incre=1.0
optimize.gap_weight=1.0
optimize.init_scf=False
dlfind.printl=2
dlfind.icoord=3
dlfind.iopt=3
dlfind.ims=0
hess.type=numerical
hess.state=0
hess.dx=0.01
hess.nproc=1
hess.read=False
hess.restart=False
hess.temperature=298.15
hess.clean=False
nac.type=numerical
nac.dt=1
nac.dx=0.0001
nac.bp=False
nac.nproc=1
nac.restart=False
nac.clean=False
nac.states=1 2
nac.align=reorder
basis_set.library=
tests.exception=False
functional=bhhlyp

External program completed successfully in 19.042 sec

-------------------------------------------------   --------------------
FINAL SINGLE POINT ENERGY (From external program)      -231.891524770497
-------------------------------------------------   --------------------


------------------
CARTESIAN GRADIENT
------------------

   1   C   :    0.000112707    0.000025812   -0.000077323
   2   C   :   -0.000163261   -0.000310724    0.000279144
   3   C   :    0.000051263    0.000030876    0.000008831
   4   H   :   -0.000004393    0.000054472    0.000028513
   5   H   :   -0.000030831   -0.000032118   -0.000043379
   6   C   :   -0.000139525    0.000176628   -0.000367572
   7   C   :   -0.000240004   -0.000099941    0.000072906
   8   H   :   -0.000036544   -0.000019112   -0.000046556
   9   H   :   -0.000008421    0.000103411   -0.000010995
  10   C   :    0.000478232    0.000288889    0.000234228
  11   H   :   -0.000044431   -0.000138558    0.000061792
  12   H   :    0.000043022   -0.000052931    0.000017443

Difference to translation invariance:
           :    0.0000178129    0.0000267052    0.0001570327

Difference to rotation invariance:
           :    0.0000328008    0.0004446857   -0.0000455163

Norm of the Cartesian gradient     ...    0.0009498429
RMS gradient                       ...    0.0001583071
MAX gradient                       ...    0.0004782320
                                *** OPTIMIZATION RUN DONE ***


--------------------------------
SUGGESTED CITATIONS FOR THIS RUN
--------------------------------

Below you find a list of papers that are relevant to this ORCA run
We neither can nor want to force you to cite these papers, but we appreciate if you do
You receive ORCA, which is the product of decades of hard work by many enthusiastic individuals, for free
The only thing we kindly ask in return is that you cite our papers,
We deeply appreciate it, if you show your appreciation for ORCA by not just citing the generic ORCA reference.

Please note that relegating all ORCA citations to the supporting information does *not* help us.
SI sections are not indexed - citations you put there will not count into any citation statistics
But we need these citations in order to attract the funding resources that allow us to do what we are doing

Therefore, if you are a happy ORCA user, please consider citing a few of the papers listed below in the main body of your paper

In addition to the list printed below, the program has created the file benzene_CI.bibtex that contains the list in bibtex format
You can import this file easily into all common literature databanks and citation aid programs


List of essential papers. We consider these as the minimum necessary citations

  1. Neese,F.
     Software update: the ORCA program system, version 5.0
     WIRES Comput. Molec. Sci., 2022 12(1)e1606
     doi.org/10.1002/wcms.1606

List of papers to cite with high priority. The work reported in these papers was absolutely
necessary for this run to complete.
Our perspective: the developers of density functionals and basis sets usually get cited in chemistry papers
Good! But without the algorithms to do something with them, the functionals or basis sets would not do anything.
Hence, in our opinion, the algorithm design and method developments papers are equally worthy of getting cited

  1. Neese,F.
     The SHARK Integral Generation and Digestion System
     J. Comp. Chem., 2022  1-16
     doi.org/10.1002/jcc.26942

List of suggested additional citations. These are papers that are important in the 'surrounding' of 
of this run, or papers that preceded the highly important papers. If you like your results we are grateful for a citation.

  1. Neese,F.
     The ORCA program system
     WIRES Comput. Molec. Sci., 2012 2(1)73-78
     doi.org/10.1002/wcms.81
  2. Neese,F.
     Software update: the ORCA program system, version 4.0
     WIRES Comput. Molec. Sci., 2018 8(1)1-6
     doi.org/10.1002/wcms.1327
  3. Neese,F.; Wennmohs,F.; Becker,U.; Riplinger,C.
     The ORCA quantum chemistry program package
     J. Chem. Phys., 2020 152 Art. No. L224108
     doi.org/10.1063/5.0004608

List of optional additional citations

  1. Neese,F.
     Approximate second-order SCF convergence for spin unrestricted wavefunctions
     Chem. Phys. Lett., 2000 325(1-3)93-98
     doi.org/10.1016/s0009-2614(00)00662-x

Timings for individual modules:

Sum of individual times          ...     1130.513 sec (=  18.842 min)
Geometry relaxation              ...        0.229 sec (=   0.004 min)   0.0 %
External energy and gradient     ...     1130.284 sec (=  18.838 min) 100.0 %
                             ****ORCA TERMINATED NORMALLY****
TOTAL RUN TIME: 0 days 0 hours 19 minutes 11 seconds 532 msec
